TITLE = "Visualization of the solution"
VARIABLES = "x","y","z","Density","Momentum_x","Momentum_y","Momentum_z","Energy","Pressure","Temperature","Mach","Pressure_Coefficient"
ZONE NODES= 6745, ELEMENTS= 13390, DATAPACKING=POINT, ZONETYPE=FEQUADRILATERAL
3.013700e-01	5.097380e-01	-1.325689e-02	1.146935e+00	7.044892e-01	2.779140e-01	-4.577311e-01	3.413247e+00	1.228751e+00	1.057047e+00	6.299875e-01	4.304698e-01	
2.683862e-01	4.501969e-01	-1.455703e-02	1.119605e+00	7.478805e-01	2.330258e-01	-4.716329e-01	3.343381e+00	1.188003e+00	1.046941e+00	6.700616e-01	3.489732e-01	
2.922534e-01	4.910005e-01	-1.468201e-02	1.107571e+00	7.611580e-01	2.211367e-01	-4.640734e-01	3.310726e+00	1.171952e+00	1.044018e+00	6.813505e-01	3.168726e-01	
3.409953e-01	5.731639e-01	-1.536012e-02	1.090944e+00	7.924038e-01	1.942955e-01	-4.515536e-01	3.267712e+00	1.147672e+00	1.037970e+00	7.043274e-01	2.683113e-01	
3.193597e-01	5.383095e-01	-1.439405e-02	1.111451e+00	7.514952e-01	2.294432e-01	-4.625417e-01	3.319984e+00	1.178399e+00	1.046096e+00	6.733368e-01	3.297668e-01	
2.839341e-01	4.784195e-01	-1.388334e-02	1.134508e+00	7.340325e-01	2.521747e-01	-4.742747e-01	3.383966e+00	1.207738e+00	1.050351e+00	6.567284e-01	3.884437e-01	
2.473522e-01	4.185313e-01	-1.218774e-02	1.178963e+00	6.420527e-01	3.223863e-01	-4.412787e-01	3.494445e+00	1.277182e+00	1.068863e+00	5.807124e-01	5.273319e-01	
2.020603e-01	3.423605e-01	-1.088748e-02	1.205897e+00	5.779289e-01	3.665889e-01	-4.153471e-01	3.562094e+00	1.318543e+00	1.078831e+00	5.365740e-01	6.100540e-01	
1.763970e-01	2.980373e-01	-1.087852e-02	1.212337e+00	5.562951e-01	3.733225e-01	-4.015335e-01	3.576675e+00	1.330027e+00	1.082447e+00	5.198539e-01	6.330230e-01	
1.795101e-01	3.002266e-01	-1.290582e-02	1.169588e+00	6.381851e-01	3.048168e-01	-4.555763e-01	3.467647e+00	1.266034e+00	1.068027e+00	5.842983e-01	5.050372e-01	
2.110613e-01	3.552881e-01	-1.254819e-02	1.172484e+00	6.452029e-01	3.103290e-01	-4.556326e-01	3.477321e+00	1.268080e+00	1.067110e+00	5.882114e-01	5.091273e-01	
1.741403e-01	2.887275e-01	-1.412092e-02	1.141427e+00	6.892950e-01	2.585798e-01	-4.656190e-01	3.394757e+00	1.224948e+00	1.058861e+00	6.226079e-01	4.228636e-01	
1.661887e-01	2.758898e-01	-1.366148e-02	1.157952e+00	6.668921e-01	2.791872e-01	-4.587701e-01	3.438012e+00	1.248574e+00	1.063882e+00	6.018428e-01	4.701167e-01	
2.450207e-01	4.104000e-01	-1.435265e-02	1.127938e+00	7.236230e-01	2.471001e-01	-4.650664e-01	3.362241e+00	1.202872e+00	1.052212e+00	6.493715e-01	3.787117e-01	
2.174847e-01	3.631777e-01	-1.424821e-02	1.137579e+00	7.053051e-01	2.555708e-01	-4.647009e-01	3.386457e+00	1.217675e+00	1.056134e+00	6.336797e-01	4.083178e-01	
1.863702e-01	3.097016e-01	-1.417550e-02	1.135960e+00	6.909373e-01	2.579059e-01	-4.625270e-01	3.379291e+00	1.218289e+00	1.058173e+00	6.254151e-01	4.095461e-01	
1.736995e-01	2.860374e-01	-1.506617e-02	1.126976e+00	7.274770e-01	2.291012e-01	-4.711289e-01	3.359887e+00	1.201330e+00	1.051761e+00	6.511590e-01	3.756285e-01	
2.738303e-01	4.564183e-01	-1.587722e-02	1.092511e+00	7.948505e-01	1.913301e-01	-4.588388e-01	3.273306e+00	1.148422e+00	1.037158e+00	7.073736e-01	2.698123e-01	
2.530539e-01	4.214992e-01	-1.555709e-02	1.105606e+00	7.712028e-01	2.089149e-01	-4.642166e-01	3.306566e+00	1.168160e+00	1.042489e+00	6.872066e-01	3.092874e-01	
3.068353e-01	5.125614e-01	-1.608529e-02	1.082730e+00	8.111325e-01	1.777605e-01	-4.485129e-01	3.247620e+00	1.134520e+00	1.033859e+00	7.196731e-01	2.420075e-01	
4.014983e-01	6.737976e-01	-1.644708e-02	1.046526e+00	8.599688e-01	1.345663e-01	-4.098876e-01	3.151796e+00	1.083816e+00	1.021822e+00	7.635006e-01	1.406011e-01	
3.711568e-01	6.225148e-01	-1.622439e-02	1.056322e+00	8.336568e-01	1.523274e-01	-4.188836e-01	3.174615e+00	1.100645e+00	1.028065e+00	7.409656e-01	1.742590e-01	
3.352517e-01	5.594566e-01	-1.672675e-02	1.066586e+00	8.439148e-01	1.501218e-01	-4.262705e-01	3.206175e+00	1.110625e+00	1.027404e+00	7.433702e-01	1.942191e-01	
4.169012e-01	6.953833e-01	-1.775751e-02	1.028559e+00	9.136410e-01	9.338604e-02	-3.726895e-01	3.109935e+00	1.052958e+00	1.010069e+00	8.049167e-01	7.888337e-02	
2.734229e-01	4.517648e-01	-1.729652e-02	1.057892e+00	8.475841e-01	1.389980e-01	-4.284451e-01	3.182705e+00	1.098908e+00	1.024919e+00	7.523700e-01	1.707850e-01	
3.299740e-01	5.603532e-01	-1.258357e-02	1.159115e+00	6.862494e-01	2.955532e-01	-4.518700e-01	3.444897e+00	1.246397e+00	1.060961e+00	6.139850e-01	4.657620e-01	
3.855063e-01	6.511313e-01	-1.478556e-02	1.097361e+00	7.931547e-01	2.014922e-01	-4.492433e-01	3.285852e+00	1.155503e+00	1.038941e+00	7.006688e-01	2.839738e-01	
4.381765e-01	7.475024e-01	-1.226609e-02	1.142644e+00	6.955690e-01	2.887848e-01	-4.518430e-01	3.399747e+00	1.224883e+00	1.057677e+00	6.274311e-01	4.227340e-01	
4.117893e-01	6.976593e-01	-1.424897e-02	1.101382e+00	7.676862e-01	2.236114e-01	-4.436254e-01	3.292477e+00	1.165155e+00	1.043794e+00	6.822077e-01	3.032777e-01	
3.639390e-01	6.147088e-01	-1.452162e-02	1.103944e+00	7.662808e-01	2.192120e-01	-4.538212e-01	3.300286e+00	1.167716e+00	1.043661e+00	6.827186e-01	3.084010e-01	
3.862670e-01	6.558512e-01	-1.333365e-02	1.125332e+00	7.286047e-01	2.588233e-01	-4.530523e-01	3.355213e+00	1.199352e+00	1.051563e+00	6.519436e-01	3.716721e-01	
3.617969e-01	6.149846e-01	-1.270465e-02	1.149396e+00	7.056488e-01	2.827609e-01	-4.616301e-01	3.421140e+00	1.230819e+00	1.056559e+00	6.319624e-01	4.346063e-01	
4.124496e-01	7.023395e-01	-1.267492e-02	1.134119e+00	7.037646e-01	2.789278e-01	-4.492515e-01	3.376272e+00	1.213854e+00	1.056033e+00	6.340882e-01	4.006769e-01	
3.987136e-01	6.718945e-01	-1.549784e-02	1.081262e+00	8.303863e-01	1.726800e-01	-4.414903e-01	3.246650e+00	1.129548e+00	1.030726e+00	7.312340e-01	2.320633e-01	
3.428172e-01	5.796016e-01	-1.398829e-02	1.114945e+00	7.487365e-01	2.339330e-01	-4.615294e-01	3.329366e+00	1.183158e+00	1.047029e+00	6.697186e-01	3.392839e-01	
4.251688e-01	7.228546e-01	-1.332365e-02	1.122859e+00	7.417317e-01	2.514351e-01	-4.558802e-01	3.350590e+00	1.193964e+00	1.049145e+00	6.614628e-01	3.608971e-01	
3.791742e-01	6.458987e-01	-1.220932e-02	1.152812e+00	6.873940e-01	2.984042e-01	-4.512929e-01	3.427528e+00	1.238254e+00	1.059792e+00	6.187930e-01	4.494761e-01	
4.933536e-01	8.418719e-01	-1.258995e-02	1.129858e+00	7.288912e-01	2.603340e-01	-4.535042e-01	3.368091e+00	1.204790e+00	1.052100e+00	6.498176e-01	3.825479e-01	
5.170392e-01	8.826908e-01	-1.257070e-02	1.121523e+00	7.370168e-01	2.533153e-01	-4.535384e-01	3.345814e+00	1.193334e+00	1.049840e+00	6.587371e-01	3.596353e-01	
4.549736e-01	7.748924e-01	-1.299732e-02	1.116559e+00	7.289687e-01	2.518779e-01	-4.378946e-01	3.328537e+00	1.190519e+00	1.052021e+00	6.501312e-01	3.540072e-01	
5.574807e-01	9.514287e-01	-1.292426e-02	1.102575e+00	7.829184e-01	2.179417e-01	-4.521064e-01	3.299527e+00	1.162931e+00	1.040675e+00	6.941095e-01	2.988298e-01	
4.923440e-01	8.370543e-01	-1.387894e-02	1.104976e+00	7.991409e-01	2.049040e-01	-4.596482e-01	3.309720e+00	1.162457e+00	1.037991e+00	7.042493e-01	2.978817e-01	
4.701360e-01	8.038756e-01	-1.161219e-02	1.140700e+00	6.852478e-01	2.906916e-01	-4.369138e-01	3.390985e+00	1.225780e+00	1.060255e+00	6.168938e-01	4.245273e-01	
5.066265e-01	8.684143e-01	-1.074446e-02	1.160917e+00	6.577870e-01	3.212597e-01	-4.318570e-01	3.445028e+00	1.253559e+00	1.065401e+00	5.954557e-01	4.800864e-01	
5.534357e-01	9.471714e-01	-1.174246e-02	1.129234e+00	7.174777e-01	2.716389e-01	-4.509844e-01	3.364728e+00	1.205628e+00	1.053414e+00	6.445934e-01	3.842246e-01	
5.689920e-01	9.754499e-01	-1.101901e-02	1.147183e+00	6.962065e-01	2.968271e-01	-4.449610e-01	3.412417e+00	1.230586e+00	1.058397e+00	6.245030e-01	4.341395e-01	
5.364035e-01	9.206531e-01	-1.025328e-02	1.172694e+00	6.380160e-01	3.410752e-01	-4.323061e-01	3.476708e+00	1.269546e+00	1.068152e+00	5.837618e-01	5.120603e-01	
5.318680e-01	9.099935e-01	-1.175327e-02	1.141993e+00	7.155556e-01	2.784145e-01	-4.538245e-01	3.400938e+00	1.221059e+00	1.054976e+00	6.383422e-01	4.150862e-01	
5.576374e-01	9.571817e-01	-1.031509e-02	1.172521e+00	6.535916e-01	3.343490e-01	-4.397271e-01	3.478905e+00	1.266646e+00	1.065870e+00	5.934742e-01	5.062606e-01	
4.890898e-01	8.372497e-01	-1.124645e-02	1.170645e+00	6.802291e-01	3.115505e-01	-4.440113e-01	3.476626e+00	1.261334e+00	1.063100e+00	6.051092e-01	4.956354e-01	
5.012500e-01	8.610001e-01	-9.625009e-03	1.187761e+00	6.005894e-01	3.694046e-01	-4.074365e-01	3.513502e+00	1.293733e+00	1.074694e+00	5.552162e-01	5.604345e-01	
4.474456e-01	7.667069e-01	-1.050082e-02	1.169737e+00	6.292651e-01	3.417515e-01	-4.065681e-01	3.464441e+00	1.269842e+00	1.071102e+00	5.710225e-01	5.126517e-01	
4.179170e-01	7.150615e-01	-1.090802e-02	1.178480e+00	6.295696e-01	3.486739e-01	-4.264905e-01	3.491740e+00	1.277928e+00	1.069926e+00	5.761248e-01	5.288250e-01	
3.742471e-01	6.394944e-01	-1.102389e-02	1.188519e+00	6.254623e-01	3.543246e-01	-4.264613e-01	3.519901e+00	1.290399e+00	1.071242e+00	5.704149e-01	5.537669e-01	
3.499518e-01	5.972226e-01	-1.122691e-02	1.191953e+00	6.382496e-01	3.443780e-01	-4.303060e-01	3.531087e+00	1.293114e+00	1.070402e+00	5.740635e-01	5.591968e-01	
3.944741e-01	6.730368e-01	-1.180501e-02	1.161992e+00	6.687815e-01	3.154998e-01	-4.395246e-01	3.450218e+00	1.252722e+00	1.063704e+00	6.025876e-01	4.784113e-01	
4.090089e-01	7.020716e-01	-9.352521e-03	1.198707e+00	5.602840e-01	3.999636e-01	-3.848313e-01	3.539508e+00	1.312027e+00	1.079939e+00	5.314931e-01	5.970230e-01	
3.960113e-01	6.779871e-01	-1.045384e-02	1.183642e+00	5.955582e-01	3.703222e-01	-4.074330e-01	3.501226e+00	1.289337e+00	1.074770e+00	5.548803e-01	5.516421e-01	
4.862534e-01	8.343631e-01	-1.009410e-02	1.182537e+00	6.098595e-01	3.593189e-01	-4.183243e-01	3.500305e+00	1.285786e+00	1.072811e+00	5.635449e-01	5.445399e-01	
4.667572e-01	8.008385e-01	-1.001004e-02	1.191174e+00	6.079938e-01	3.635804e-01	-4.205374e-01	3.525001e+00	1.296046e+00	1.073531e+00	5.603724e-01	5.650599e-01	
4.544087e-01	7.804717e-01	-9.376157e-03	1.183282e+00	5.751875e-01	3.781769e-01	-3.856524e-01	3.495955e+00	1.293152e+00	1.078277e+00	5.390968e-01	5.592718e-01	
4.337267e-01	7.451113e-01	-9.113702e-03	1.196357e+00	5.541012e-01	4.024688e-01	-3.771174e-01	3.531576e+00	1.310449e+00	1.080759e+00	5.277116e-01	5.938665e-01	
5.155078e-01	8.864985e-01	-9.044250e-03	1.188185e+00	5.847554e-01	3.786853e-01	-3.990622e-01	3.512463e+00	1.296485e+00	1.076596e+00	5.467047e-01	5.659377e-01	
4.963690e-01	8.539077e-01	-8.709239e-03	1.204294e+00	5.599433e-01	4.014895e-01	-3.853282e-01	3.555460e+00	1.318687e+00	1.080385e+00	5.294385e-01	6.103412e-01	
5.354533e-01	9.214128e-01	-8.726055e-03	1.207698e+00	5.798370e-01	3.966969e-01	-3.972117e-01	3.568424e+00	1.319502e+00	1.078006e+00	5.403325e-01	6.119722e-01	
6.771490e-03	0.000000e+00	-1.415300e-02	1.240821e+00	4.454591e-01	-2.873802e-03	-4.288150e-01	3.631148e+00	1.390835e+00	1.105951e+00	3.977953e-01	7.546381e-01	
4.925120e-03	0.000000e+00	-1.214236e-02	1.252176e+00	3.308276e-01	-9.519606e-03	-3.859097e-01	3.649444e+00	1.418495e+00	1.117718e+00	3.223957e-01	8.099588e-01	
3.542421e-03	0.000000e+00	-1.033264e-02	1.262185e+00	2.762883e-01	1.842456e-02	-3.497855e-01	3.671420e+00	1.437032e+00	1.123344e+00	2.799591e-01	8.470315e-01	
1.195429e-02	1.235045e-02	-1.199789e-02	1.268468e+00	4.332149e-01	1.190255e-01	-4.174009e-01	3.709409e+00	1.424469e+00	1.108008e+00	3.855686e-01	8.219065e-01	
2.738846e-01	4.632359e-01	-1.279237e-02	1.174981e+00	6.763308e-01	3.076307e-01	-4.509062e-01	3.488632e+00	1.266876e+00	1.063831e+00	6.020536e-01	5.067206e-01	
2.863173e-01	4.883668e-01	-1.057210e-02	1.196132e+00	5.602189e-01	3.910946e-01	-3.860406e-01	3.531487e+00	1.309625e+00	1.080283e+00	5.299105e-01	5.922181e-01	
2.300790e-01	3.911764e-01	-1.059970e-02	1.201159e+00	5.761796e-01	3.720319e-01	-4.035372e-01	3.547782e+00	1.313676e+00	1.079089e+00	5.353940e-01	6.003195e-01	
3.280262e-01	5.604600e-01	-1.053592e-02	1.192444e+00	5.912129e-01	3.694594e-01	-4.097655e-01	3.525621e+00	1.300568e+00	1.076129e+00	5.488070e-01	5.741033e-01	
2.556751e-01	4.354455e-01	-1.056479e-02	1.211859e+00	5.709464e-01	3.879120e-01	-4.125250e-01	3.579631e+00	1.325135e+00	1.078891e+00	5.363010e-01	6.232380e-01	
3.042794e-01	5.176405e-01	-1.167756e-02	1.175736e+00	6.230357e-01	3.415078e-01	-4.241593e-01	3.482170e+00	1.276394e+00	1.071136e+00	5.708771e-01	5.257569e-01	
3.085785e-01	5.272572e-01	-1.027278e-02	1.199236e+00	5.692650e-01	3.858229e-01	-4.023087e-01	3.542528e+00	1.311148e+00	1.078739e+00	5.369914e-01	5.952648e-01	
2.646248e-01	4.493579e-01	-1.157633e-02	1.184507e+00	6.092436e-01	3.509468e-01	-4.213941e-01	3.505366e+00	1.288696e+00	1.073451e+00	5.607239e-01	5.503596e-01	
3.362926e-01	5.766442e-01	-9.179929e-03	1.212426e+00	5.329721e-01	4.167510e-01	-3.607922e-01	3.574314e+00	1.332745e+00	1.084579e+00	5.097896e-01	6.384576e-01	
3.032844e-01	5.191133e-01	-9.548432e-03	1.216490e+00	5.322828e-01	4.167832e-01	-3.746558e-01	3.586946e+00	1.336562e+00	1.084051e+00	5.122948e-01	6.460913e-01	
2.794964e-01	4.788227e-01	-8.894265e-03	1.222488e+00	5.124965e-01	4.368120e-01	-3.442603e-01	3.600971e+00	1.346813e+00	1.087007e+00	4.981356e-01	6.665945e-01	
2.663238e-01	4.554418e-01	-9.386617e-03	1.218938e+00	5.257878e-01	4.240303e-01	-3.637881e-01	3.592851e+00	1.340565e+00	1.085115e+00	5.072359e-01	6.540984e-01	
3.189152e-01	5.470332e-01	-8.842414e-03	1.220962e+00	5.121995e-01	4.330466e-01	-3.529092e-01	3.596930e+00	1.344679e+00	1.086640e+00	4.999095e-01	6.623255e-01	
2.959777e-01	5.081081e-01	-8.217343e-03	1.220515e+00	4.905225e-01	4.442591e-01	-3.220625e-01	3.591834e+00	1.347967e+00	1.089696e+00	4.849592e-01	6.689026e-01	
2.819245e-01	4.840428e-01	-8.000627e-03	1.226588e+00	4.769198e-01	4.590381e-01	-3.057596e-01	3.607905e+00	1.356473e+00	1.091144e+00	4.777458e-01	6.859149e-01	
3.544198e-01	6.074155e-01	-9.594074e-03	1.214416e+00	5.616708e-01	4.035589e-01	-3.770511e-01	3.583787e+00	1.331326e+00	1.081649e+00	5.235782e-01	6.356193e-01	
3.844477e-01	6.598511e-01	-9.192069e-03	1.212095e+00	5.353543e-01	4.204929e-01	-3.594897e-01	3.573936e+00	1.331785e+00	1.084094e+00	5.120947e-01	6.365379e-01	
3.408367e-01	5.856949e-01	-8.204007e-03	1.221196e+00	4.962486e-01	4.448604e-01	-3.094042e-01	3.593555e+00	1.349001e+00	1.089924e+00	4.838286e-01	6.709708e-01	
4.185889e-01	7.201250e-01	-8.206081e-03	1.227618e+00	5.118465e-01	4.457272e-01	-3.303113e-01	3.615265e+00	1.353282e+00	1.087663e+00	4.949465e-01	6.795313e-01	
4.029261e-01	6.930714e-01	-8.185164e-03	1.225144e+00	5.127162e-01	4.427478e-01	-3.352270e-01	3.608424e+00	1.350110e+00	1.087305e+00	4.966867e-01	6.731889e-01	
3.649348e-01	6.277571e-01	-7.859737e-03	1.228443e+00	4.777399e-01	4.612362e-01	-3.009029e-01	3.613159e+00	1.358729e+00	1.091307e+00	4.769255e-01	6.904253e-01	
4.111576e-01	7.078442e-01	-7.722131e-03	1.219715e+00	4.787346e-01	4.614052e-01	-2.986125e-01	3.588337e+00	1.348224e+00	1.090619e+00	4.803698e-01	6.694162e-01	
2.149548e-01	3.670529e-01	-9.046433e-03	1.229749e+00	5.102605e-01	4.249378e-01	-3.459186e-01	3.620245e+00	1.356925e+00	1.088702e+00	4.898639e-01	6.868190e-01	
2.454189e-01	4.200116e-01	-8.803626e-03	1.227260e+00	5.038562e-01	4.336978e-01	-3.421534e-01	3.613000e+00	1.354097e+00	1.088636e+00	4.901870e-01	6.811627e-01	
2.306344e-01	3.957959e-01	-7.543293e-03	1.248503e+00	4.387506e-01	4.798490e-01	-2.771396e-01	3.666501e+00	1.386574e+00	1.095779e+00	4.540096e-01	7.461169e-01	
1.920798e-01	3.268354e-01	-9.600126e-03	1.237945e+00	5.074728e-01	4.207691e-01	-3.622358e-01	3.644108e+00	1.366235e+00	1.088914e+00	4.888213e-01	7.054390e-01	
2.121265e-01	3.635069e-01	-7.816584e-03	1.237618e+00	4.466426e-01	4.667655e-01	-2.829360e-01	3.635287e+00	1.373732e+00	1.095179e+00	4.571408e-01	7.204330e-01	
1.952733e-01	3.341343e-01	-8.032573e-03	1.252196e+00	4.485493e-01	4.681087e-01	-2.944312e-01	3.677859e+00	1.390164e+00	1.095376e+00	4.561165e-01	7.532963e-01	
1.689907e-01	2.877063e-01	-8.932805e-03	1.222786e+00	4.845934e-01	4.198799e-01	-3.372003e-01	3.596308e+00	1.352681e+00	1.091477e+00	4.760735e-01	6.783302e-01	
2.069497e-02	2.979810e-02	-1.021345e-02	1.272164e+00	4.730778e-01	3.220778e-01	-3.884480e-01	3.731467e+00	1.417372e+00	1.099284e+00	4.353425e-01	8.077116e-01	
9.433667e-02	1.591260e-01	-8.434231e-03	1.227821e+00	4.491598e-01	4.230139e-01	-3.076421e-01	3.604853e+00	1.364515e+00	1.096510e+00	4.501699e-01	7.019976e-01	
1.148049e-01	1.947014e-01	-8.267527e-03	1.237165e+00	4.565729e-01	4.334151e-01	-3.129952e-01	3.633637e+00	1.373551e+00	1.095434e+00	4.558096e-01	7.200696e-01	
4.704239e-01	7.996336e-01	-1.377908e-02	1.099572e+00	7.689840e-01	2.186442e-01	-4.365253e-01	3.286585e+00	1.163722e+00	1.044226e+00	6.805484e-01	3.004114e-01	
4.260193e-01	7.184084e-01	-1.560762e-02	1.062545e+00	8.300484e-01	1.625120e-01	-4.180628e-01	3.191427e+00	1.109017e+00	1.029818e+00	7.345628e-01	1.910026e-01	
5.386105e-01	9.181294e-01	-1.326780e-02	1.092923e+00	7.864918e-01	2.089197e-01	-4.438486e-01	3.271876e+00	1.151517e+00	1.039562e+00	6.983254e-01	2.760026e-01	
5.134682e-01	8.731800e-01	-1.394009e-02	1.085592e+00	8.058832e-01	1.911894e-01	-4.438358e-01	3.254571e+00	1.139154e+00	1.035345e+00	7.141505e-01	2.512754e-01	
4.908896e-01	8.313397e-01	-1.503023e-02	1.055284e+00	8.387335e-01	1.527886e-01	-4.194859e-01	3.172970e+00	1.098090e+00	1.026686e+00	7.459761e-01	1.691473e-01	
4.411075e-01	7.486656e-01	-1.400702e-02	1.091307e+00	7.701752e-01	2.132143e-01	-4.350790e-01	3.263274e+00	1.153579e+00	1.042965e+00	6.853843e-01	2.801261e-01	
5.100916e-01	8.604847e-01	-1.614225e-02	1.025929e+00	8.856338e-01	1.093827e-01	-3.809643e-01	3.096987e+00	1.055264e+00	1.014877e+00	7.881234e-01	8.349705e-02	
5.348593e-01	9.067497e-01	-1.500141e-02	1.037327e+00	8.535625e-01	1.363086e-01	-4.099704e-01	3.124884e+00	1.073495e+00	1.021067e+00	7.661997e-01	1.199591e-01	
4.215306e-01	7.066571e-01	-1.686183e-02	1.035850e+00	8.695968e-01	1.235669e-01	-3.905891e-01	3.122010e+00	1.070395e+00	1.019568e+00	7.715390e-01	1.137575e-01	
4.604047e-01	7.784589e-01	-1.523821e-02	1.053499e+00	8.252032e-01	1.587777e-01	-4.181618e-01	3.165065e+00	1.098768e+00	1.029062e+00	7.373288e-01	1.705048e-01	
4.744927e-01	7.985543e-01	-1.645938e-02	1.023764e+00	8.728578e-01	1.139054e-01	-3.771874e-01	3.087611e+00	1.055877e+00	1.017613e+00	7.784732e-01	8.472259e-02	
4.471407e-01	7.520076e-01	-1.640785e-02	1.031530e+00	8.564235e-01	1.286531e-01	-3.839282e-01	3.106367e+00	1.068550e+00	1.022075e+00	7.625951e-01	1.100683e-01	
5.129291e-01	8.689840e-01	-1.506858e-02	1.045402e+00	8.559364e-01	1.384923e-01	-4.189008e-01	3.148904e+00	1.082159e+00	1.021356e+00	7.651656e-01	1.372862e-01	
5.570225e-01	9.436641e-01	-1.529843e-02	1.032267e+00	8.794112e-01	1.190218e-01	-3.953717e-01	3.114835e+00	1.063065e+00	1.016102e+00	7.838111e-01	9.909777e-02	
5.629830e-01	9.575783e-01	-1.414351e-02	1.065708e+00	8.319588e-01	1.683620e-01	-4.237988e-01	3.201548e+00	1.111697e+00	1.029243e+00	7.366660e-01	1.963631e-01	
5.752606e-01	9.829343e-01	-1.254312e-02	1.105298e+00	7.706158e-01	2.295245e-01	-4.505482e-01	3.305141e+00	1.168338e+00	1.042938e+00	6.854882e-01	3.096437e-01	
6.220132e-01	1.062959e+00	-1.268125e-02	1.076252e+00	7.950488e-01	2.013255e-01	-4.398213e-01	3.226333e+00	1.129590e+00	1.035562e+00	7.133404e-01	2.321485e-01	
5.968055e-01	1.018263e+00	-1.320758e-02	1.070946e+00	8.047440e-01	1.919511e-01	-4.380383e-01	3.212932e+00	1.121517e+00	1.033255e+00	7.219124e-01	2.160014e-01	
6.108550e-01	1.040204e+00	-1.395301e-02	1.052839e+00	8.443541e-01	1.591887e-01	-4.166239e-01	3.167415e+00	1.093749e+00	1.025002e+00	7.520694e-01	1.604658e-01	
5.815053e-01	9.909107e-01	-1.360207e-02	1.078132e+00	8.218351e-01	1.850366e-01	-4.415199e-01	3.236671e+00	1.126861e+00	1.031259e+00	7.292743e-01	2.266910e-01	
5.488691e-01	9.257849e-01	-1.634675e-02	1.007491e+00	8.990189e-01	9.192234e-02	-3.510161e-01	3.045863e+00	1.031764e+00	1.010435e+00	8.036470e-01	3.649529e-02	
4.464610e-01	7.463376e-01	-1.760140e-02	1.013920e+00	8.967900e-01	9.496597e-02	-3.556287e-01	3.063578e+00	1.040067e+00	1.012109e+00	7.978172e-01	5.310188e-02	
4.907466e-01	8.215199e-01	-1.761636e-02	9.933652e-01	9.079968e-01	7.616881e-02	-3.254074e-01	3.006382e+00	1.014072e+00	1.007232e+00	8.147414e-01	1.112382e-03	
5.227067e-01	8.786007e-01	-1.698375e-02	1.014887e+00	9.235505e-01	8.114511e-02	-3.461062e-01	3.071821e+00	1.035738e+00	1.006935e+00	8.157638e-01	4.444371e-02	
5.360145e-01	8.974928e-01	-1.775228e-02	9.877525e-01	9.279928e-01	6.206707e-02	-2.977058e-01	2.993452e+00	1.004285e+00	1.003179e+00	8.286635e-01	-1.846081e-02	
1.333273e-01	2.259645e-01	-8.994542e-03	1.216527e+00	4.908115e-01	4.131636e-01	-3.427263e-01	3.579025e+00	1.344631e+00	1.090564e+00	4.806474e-01	6.622305e-01	
1.577470e-01	2.633167e-01	-1.252228e-02	1.183155e+00	6.134079e-01	3.217363e-01	-4.295959e-01	3.500636e+00	1.287956e+00	1.074060e+00	5.580314e-01	5.488792e-01	
1.498145e-01	2.528019e-01	-1.036608e-02	1.213534e+00	5.330546e-01	3.861359e-01	-3.811077e-01	3.576347e+00	1.335199e+00	1.085584e+00	5.049930e-01	6.433657e-01	
1.358370e-01	2.254827e-01	-1.253008e-02	1.182674e+00	6.127728e-01	3.226412e-01	-4.381222e-01	3.500149e+00	1.286497e+00	1.073280e+00	5.614805e-01	5.459616e-01	
1.250496e-01	2.036561e-01	-1.434790e-02	1.162349e+00	6.713488e-01	2.708074e-01	-4.726451e-01	3.452137e+00	1.252246e+00	1.062974e+00	6.056347e-01	4.774609e-01	
1.279587e-01	2.142039e-01	-1.098088e-02	1.217327e+00	5.581660e-01	3.740619e-01	-4.147722e-01	3.592381e+00	1.334514e+00	1.081646e+00	5.235905e-01	6.419953e-01	
1.552645e-01	2.550639e-01	-1.468900e-02	1.141191e+00	6.997802e-01	2.497667e-01	-4.648126e-01	3.395264e+00	1.223487e+00	1.057817e+00	6.268642e-01	4.199427e-01	
1.334062e-01	2.147442e-01	-1.593817e-02	1.120325e+00	7.524372e-01	2.052044e-01	-4.765611e-01	3.345308e+00	1.188991e+00	1.047138e+00	6.692941e-01	3.509505e-01	
1.339850e-01	2.119509e-01	-1.748918e-02	1.092638e+00	7.975962e-01	1.600234e-01	-4.694952e-01	3.274085e+00	1.148154e+00	1.036797e+00	7.087280e-01	2.692771e-01	
1.185039e-01	1.901488e-01	-1.545121e-02	1.136518e+00	7.408162e-01	2.146294e-01	-4.775031e-01	3.389032e+00	1.210805e+00	1.051156e+00	6.535516e-01	3.945785e-01	
9.101161e-03	0.000000e+00	-1.625496e-02	1.202705e+00	5.404243e-01	-1.027440e-02	-4.437452e-01	3.535033e+00	1.332684e+00	1.093295e+00	4.668528e-01	6.383368e-01	
1.099673e-01	1.841073e-01	-1.022848e-02	1.239158e+00	5.318134e-01	3.887229e-01	-3.851882e-01	3.649455e+00	1.365799e+00	1.087500e+00	4.957388e-01	7.045659e-01	
1.111024e-01	1.825810e-01	-1.265461e-02	1.178844e+00	6.190324e-01	3.029506e-01	-4.502240e-01	3.490083e+00	1.281059e+00	1.072216e+00	5.661562e-01	5.350864e-01	
9.603469e-02	1.583305e-01	-1.149103e-02	1.207853e+00	5.884383e-01	3.262749e-01	-4.497019e-01	3.569285e+00	1.319266e+00	1.077675e+00	5.418334e-01	6.115000e-01	
4.974765e-02	8.147226e-02	-8.942494e-03	1.231721e+00	4.584084e-01	3.903124e-01	-3.218258e-01	3.614878e+00	1.370276e+00	1.097653e+00	4.441132e-01	7.135206e-01	
8.109095e-02	1.340020e-01	-1.037966e-02	1.212203e+00	5.337115e-01	3.531961e-01	-3.961309e-01	3.571161e+00	1.334996e+00	1.086611e+00	5.000508e-01	6.429599e-01	
5.428102e-02	8.648895e-02	-1.127642e-02	1.213509e+00	5.427618e-01	3.303262e-01	-4.200988e-01	3.576476e+00	1.334969e+00	1.085419e+00	5.057822e-01	6.429056e-01	
8.009242e-02	1.287496e-01	-1.283842e-02	1.176679e+00	5.981214e-01	2.904728e-01	-4.408245e-01	3.478970e+00	1.283410e+00	1.076161e+00	5.486639e-01	5.397892e-01	
6.384579e-02	1.049801e-01	-9.727664e-03	1.242977e+00	5.131252e-01	3.670002e-01	-3.759019e-01	3.655344e+00	1.375364e+00	1.091752e+00	4.746860e-01	7.236960e-01	
5.789180e-02	8.984757e-02	-1.319317e-02	1.180339e+00	5.994496e-01	2.847978e-01	-4.418981e-01	3.489223e+00	1.287970e+00	1.076635e+00	5.465298e-01	5.489088e-01	
3.433675e-02	5.344374e-02	-1.016313e-02	1.236676e+00	5.020994e-01	3.491188e-01	-3.872127e-01	3.635669e+00	1.369537e+00	1.092666e+00	4.700610e-01	7.120423e-01	
3.757053e-02	5.675623e-02	-1.189169e-02	1.234174e+00	5.453573e-01	3.360235e-01	-4.214051e-01	3.635965e+00	1.359114e+00	1.086549e+00	5.003510e-01	6.911968e-01	
2.603847e-02	3.590465e-02	-1.252422e-02	1.222349e+00	5.502454e-01	2.693200e-01	-4.337219e-01	3.599578e+00	1.347645e+00	1.087801e+00	4.942719e-01	6.682582e-01	
1.652319e-02	1.638629e-02	-1.440200e-02	1.211293e+00	5.243703e-01	9.461346e-02	-4.515342e-01	3.559298e+00	1.343177e+00	1.094091e+00	4.627699e-01	6.593229e-01	
1.777592e-02	1.457306e-02	-1.642872e-02	1.194815e+00	6.131836e-01	2.652633e-02	-4.596454e-01	3.524430e+00	1.311351e+00	1.082899e+00	5.177312e-01	5.956711e-01	
1.197058e-02	0.000000e+00	-1.837921e-02	1.154552e+00	6.469112e-01	-2.452822e-02	-4.471722e-01	3.414333e+00	1.258495e+00	1.075492e+00	5.516572e-01	4.899586e-01	
2.243416e-01	3.706272e-01	-1.616632e-02	1.101978e+00	7.852969e-01	1.922316e-01	-4.611214e-01	3.298047e+00	1.161997e+00	1.040402e+00	6.951451e-01	2.969616e-01	
1.621160e-01	2.632082e-01	-1.633929e-02	1.090348e+00	7.624745e-01	1.863085e-01	-4.572195e-01	3.260233e+00	1.152742e+00	1.043125e+00	6.847751e-01	2.784518e-01	
1.948076e-01	3.209154e-01	-1.571991e-02	1.116923e+00	7.616382e-01	2.065044e-01	-4.727733e-01	3.337187e+00	1.183342e+00	1.045338e+00	6.762681e-01	3.396528e-01	
2.516415e-01	4.162018e-01	-1.667060e-02	1.082800e+00	8.158441e-01	1.679656e-01	-4.473342e-01	3.248241e+00	1.134184e+00	1.033486e+00	7.210576e-01	2.413352e-01	
1.822654e-01	2.954497e-01	-1.727167e-02	1.071541e+00	8.071746e-01	1.525772e-01	-4.481308e-01	3.214493e+00	1.122363e+00	1.033461e+00	7.211501e-01	2.176941e-01	
2.083143e-01	3.391707e-01	-1.762133e-02	1.069906e+00	8.301102e-01	1.426615e-01	-4.445681e-01	3.214143e+00	1.116095e+00	1.029260e+00	7.366044e-01	2.051592e-01	
1.947574e-01	3.141603e-01	-1.821434e-02	1.062270e+00	8.418805e-01	1.279426e-01	-4.373263e-01	3.194191e+00	1.105143e+00	1.026486e+00	7.467041e-01	1.832541e-01	
2.029396e-01	3.324295e-01	-1.671944e-02	1.088489e+00	8.054639e-01	1.658599e-01	-4.638971e-01	3.263751e+00	1.141698e+00	1.034896e+00	7.158213e-01	2.563651e-01	
3.073663e-01	5.081272e-01	-1.784229e-02	1.038331e+00	8.704796e-01	1.161341e-01	-4.058316e-01	3.130512e+00	1.071931e+00	1.018592e+00	7.750048e-01	1.168298e-01	
2.995275e-01	4.904260e-01	-1.901922e-02	1.011918e+00	8.996656e-01	8.373923e-02	-3.746565e-01	3.060461e+00	1.035082e+00	1.009251e+00	8.077582e-01	4.313320e-02	
2.366769e-01	3.868221e-01	-1.794115e-02	1.056516e+00	8.509626e-01	1.288459e-01	-4.291792e-01	3.179382e+00	1.096662e+00	1.024156e+00	7.551216e-01	1.662914e-01	
3.903208e-01	6.499230e-01	-1.780085e-02	1.021566e+00	9.012531e-01	9.356635e-02	-3.835089e-01	3.088659e+00	1.045933e+00	1.010199e+00	8.044683e-01	6.483366e-02	
3.494305e-01	5.789132e-01	-1.813640e-02	1.021729e+00	8.903576e-01	9.762601e-02	-3.867580e-01	3.086838e+00	1.048414e+00	1.012433e+00	7.966835e-01	6.979582e-02	
4.127594e-01	6.845739e-01	-1.863267e-02	9.923492e-01	9.176546e-01	6.813259e-02	-3.284857e-01	3.006243e+00	1.010098e+00	1.004312e+00	8.247846e-01	-6.835156e-03	
3.259516e-01	5.349745e-01	-1.912418e-02	1.004888e+00	9.189192e-01	6.909082e-02	-3.650370e-01	3.044731e+00	1.022361e+00	1.003820e+00	8.264710e-01	1.768938e-02	
3.830780e-01	6.320124e-01	-1.911365e-02	9.849477e-01	9.296113e-01	5.364659e-02	-3.267829e-01	2.988665e+00	9.977209e-01	9.994598e-01	8.413354e-01	-3.158990e-02	
3.522631e-01	5.790435e-01	-1.926782e-02	9.858117e-01	9.237974e-01	5.721472e-02	-3.362505e-01	2.990444e+00	9.994383e-01	1.000303e+00	8.384720e-01	-2.815516e-02	
3.679602e-01	6.080824e-01	-1.872833e-02	9.798364e-01	9.144174e-01	5.951614e-02	-3.501362e-01	2.972942e+00	9.927568e-01	9.996748e-01	8.406056e-01	-4.151818e-02	
2.066076e-01	3.321314e-01	-1.893193e-02	1.045563e+00	8.673430e-01	1.055280e-01	-4.132390e-01	3.150293e+00	1.081422e+00	1.020503e+00	7.682102e-01	1.358119e-01	
2.716358e-01	4.431423e-01	-1.894982e-02	1.023968e+00	8.791549e-01	1.000429e-01	-3.844065e-01	3.090067e+00	1.054246e+00	1.015839e+00	7.847376e-01	8.145979e-02	
4.908029e-01	8.157687e-01	-1.876729e-02	9.767124e-01	9.371136e-01	4.931980e-02	-2.758403e-01	2.963541e+00	9.895138e-01	9.995962e-01	8.408724e-01	-4.800411e-02	
4.528654e-01	7.527520e-01	-1.858041e-02	9.923224e-01	9.369134e-01	5.840145e-02	-3.159506e-01	3.009971e+00	1.006262e+00	1.000524e+00	8.377181e-01	-1.450772e-02	
4.548044e-01	7.527020e-01	-1.920687e-02	9.771604e-01	9.565393e-01	3.787488e-02	-2.841264e-01	2.970682e+00	9.841857e-01	9.937580e-01	8.605782e-01	-5.866040e-02	
3.638483e-01	5.953284e-01	-1.995120e-02	9.857400e-01	9.362042e-01	5.005606e-02	-2.983346e-01	2.989993e+00	9.995991e-01	1.000536e+00	8.376773e-01	-2.783354e-02	
4.107403e-01	6.757130e-01	-1.970759e-02	9.773864e-01	9.405323e-01	4.521595e-02	-2.790775e-01	2.966537e+00	9.892457e-01	9.986362e-01	8.441284e-01	-4.854038e-02	
4.549340e-01	7.495158e-01	-1.977782e-02	9.726496e-01	9.535932e-01	3.678175e-02	-2.487783e-01	2.954713e+00	9.818987e-01	9.960467e-01	8.528799e-01	-6.323445e-02	
2.906788e-01	4.715547e-01	-1.992636e-02	9.935228e-01	9.178475e-01	6.179169e-02	-3.264240e-01	3.009212e+00	1.011880e+00	1.004894e+00	8.227860e-01	-3.272670e-03	
3.268441e-01	5.313847e-01	-2.022906e-02	9.875347e-01	9.316600e-01	5.274240e-02	-3.065592e-01	2.994458e+00	1.002398e+00	1.001514e+00	8.343481e-01	-2.223637e-02	
3.972019e-01	6.805304e-01	1.013877e-02	9.827140e-01	7.037389e-01	1.845651e-01	6.798856e-01	2.985103e+00	9.922416e-01	9.962303e-01	8.522609e-01	-4.254850e-02	
4.151062e-01	7.126639e-01	9.311349e-03	1.002744e+00	6.818911e-01	2.086310e-01	6.941107e-01	3.039949e+00	1.018463e+00	1.002132e+00	8.322426e-01	9.894510e-03	
3.806012e-01	6.509334e-01	1.073535e-02	9.734899e-01	7.186456e-01	1.719852e-01	6.715826e-01	2.960610e+00	9.794028e-01	9.926572e-01	8.642688e-01	-6.822623e-02	
4.292083e-01	7.358853e-01	1.008481e-02	9.686935e-01	7.138783e-01	1.687792e-01	6.840219e-01	2.948786e+00	9.718133e-01	9.898420e-01	8.736736e-01	-8.340525e-02	
4.529248e-01	7.840892e-01	2.402531e-03	1.206650e+00	3.987308e-01	4.985715e-01	5.162198e-01	3.568146e+00	1.315537e+00	1.075700e+00	5.507283e-01	6.040426e-01	
4.354925e-01	7.538708e-01	2.481663e-03	1.198768e+00	4.009052e-01	4.858589e-01	5.256446e-01	3.545769e+00	1.306011e+00	1.074933e+00	5.541538e-01	5.849911e-01	
4.692780e-01	8.125763e-01	1.889766e-03	1.212590e+00	3.873763e-01	5.129920e-01	4.820760e-01	3.581577e+00	1.326145e+00	1.079063e+00	5.355148e-01	6.252584e-01	