TITLE = "Visualization of the solution"
VARIABLES = "x","y","z","Density","Momentum_x","Momentum_y","Momentum_z","Energy","Pressure","Temperature","Mach","Pressure_Coefficient"
ZONE NODES= 1108, ELEMENTS= 2161, DATAPACKING=POINT, ZONETYPE=FEQUADRILATERAL
1.408832e+00	1.475759e+00	-7.125052e-04	9.759783e-01	8.746727e-01	4.713419e-01	1.009953e-01	2.967482e+00	9.825999e-01	9.933585e-01	8.619174e-01	-6.183201e-02	
1.412680e+00	1.468967e+00	-2.973964e-09	1.021612e+00	8.345273e-01	2.609101e-01	-3.720673e-02	3.060511e+00	1.074266e+00	1.037517e+00	7.060271e-01	1.215004e-01	
1.414624e+00	1.475889e+00	-2.987978e-09	9.818543e-01	8.122084e-01	3.893321e-01	-9.889543e-03	2.956525e+00	1.017339e+00	1.022323e+00	7.617041e-01	7.646538e-03	
1.165226e+00	7.324610e-01	5.018660e-03	1.020634e+00	9.475342e-01	-1.361913e-02	-1.216511e-01	3.078348e+00	1.052469e+00	1.017440e+00	7.790861e-01	7.790606e-02	
1.091323e+00	1.196284e+00	-2.499419e-02	9.126485e-01	8.830158e-01	7.350199e-03	6.104168e-02	2.761046e+00	9.327210e-01	1.008365e+00	8.108248e-01	-1.615898e-01	
7.230389e-01	1.186984e+00	1.997923e-02	6.813972e-01	7.664975e-01	3.307101e-02	2.486358e-01	2.106238e+00	6.515842e-01	9.434950e-01	1.022943e+00	-7.238634e-01	
5.373855e-01	9.064020e-01	1.630485e-02	8.440568e-01	9.622236e-01	-1.140954e-02	3.215307e-01	2.614336e+00	8.018202e-01	9.372917e-01	1.042320e+00	-4.233913e-01	
1.367063e+00	1.481855e+00	1.752480e-03	9.029455e-01	8.670074e-01	-1.699235e-01	2.687921e-01	2.745282e+00	9.092143e-01	9.935144e-01	8.613945e-01	-2.086032e-01	
1.414261e+00	1.474594e+00	-2.985357e-09	9.662227e-01	6.601252e-01	1.198121e-01	-2.298565e-03	2.859836e+00	1.050762e+00	1.072992e+00	5.627454e-01	7.449273e-02	
1.408509e+00	1.474283e+00	7.010933e-04	9.721708e-01	7.600390e-01	-3.017706e-02	-9.865586e-02	2.896929e+00	1.037743e+00	1.053214e+00	6.453871e-01	4.845402e-02	
1.408271e+00	1.473149e+00	6.911415e-04	9.940637e-01	7.695612e-01	-1.466766e-02	-8.948284e-02	2.960061e+00	1.063218e+00	1.055304e+00	6.370228e-01	9.940423e-02	
1.412904e+00	1.476172e+00	1.622861e-04	8.207919e-01	7.095513e-01	-2.503209e-01	2.123195e-01	2.479233e+00	8.427629e-01	1.013075e+00	7.944371e-01	-3.415060e-01	
1.057040e+00	2.218780e-01	-6.550913e-04	1.120389e+00	9.852148e-01	5.437184e-02	8.204394e-02	3.363968e+00	1.170588e+00	1.030872e+00	7.306963e-01	3.141445e-01	
1.044638e+00	5.279165e-01	1.262046e-02	9.915552e-01	9.196286e-01	3.237387e-02	-7.208965e-02	2.989265e+00	1.023862e+00	1.018812e+00	7.742243e-01	2.069278e-02	
1.409314e+00	1.475758e+00	6.528251e-04	9.827504e-01	8.512925e-01	-7.197571e-02	-1.088015e-01	2.948885e+00	1.028607e+00	1.032703e+00	7.239506e-01	3.018136e-02	
1.407243e+00	1.475522e+00	9.009459e-04	9.964468e-01	8.041268e-01	-2.092646e-02	-9.186931e-02	2.974637e+00	1.058288e+00	1.047898e+00	6.663350e-01	8.954369e-02	
8.498955e-01	1.466510e+00	7.387149e-03	9.669375e-01	6.546225e-01	3.147746e-01	6.567496e-01	2.937026e+00	9.764657e-01	9.963870e-01	8.517313e-01	-7.410041e-02	
7.087177e-01	1.116598e+00	2.384974e-02	7.914744e-01	8.607402e-01	-5.352485e-02	2.022509e-01	2.429723e+00	7.736154e-01	9.644010e-01	9.567342e-01	-4.798010e-01	
1.385948e+00	1.460010e+00	2.997212e-03	1.015939e+00	8.776039e-01	-1.425433e-01	-1.171942e-01	3.050100e+00	1.061715e+00	1.031122e+00	7.297791e-01	9.639856e-02	
9.893784e-01	1.049690e+00	2.965142e-02	8.347848e-01	8.921413e-01	-8.834158e-02	-5.095468e-02	2.551292e+00	8.273372e-01	9.778618e-01	9.131882e-01	-3.723574e-01	
9.879986e-01	1.645246e-02	2.057743e-03	1.065774e+00	9.225900e-01	1.962343e-03	-1.163749e-01	3.196988e+00	1.116525e+00	1.033648e+00	7.204550e-01	2.060173e-01	
6.573903e-02	1.112807e-01	6.613887e-03	1.267304e+00	4.905297e-01	4.788837e-01	4.408454e-01	3.738574e+00	1.390594e+00	1.082652e+00	5.188902e-01	7.541557e-01	
1.364262e+00	1.439163e+00	-4.954736e-03	1.019071e+00	9.565749e-01	8.763776e-02	1.124213e-01	3.077186e+00	1.047304e+00	1.014000e+00	7.911985e-01	6.757708e-02	
1.309743e+00	1.344148e+00	8.302618e-03	9.631060e-01	7.862556e-01	-2.848312e-02	-1.002827e-01	2.877584e+00	1.020401e+00	1.045360e+00	6.761789e-01	1.376962e-02	
1.386440e+00	1.412288e+00	1.277044e-03	1.105747e+00	9.044549e-01	-1.709479e-01	-1.031061e-01	3.307476e+00	1.167821e+00	1.042053e+00	6.888687e-01	3.086095e-01	
1.124402e+00	9.525787e-01	1.657831e-02	9.549163e-01	8.729815e-01	-4.029448e-02	-6.831469e-02	2.875551e+00	9.892873e-01	1.022178e+00	7.622233e-01	-4.845716e-02	
1.255868e+00	9.254185e-01	-5.088720e-04	1.023671e+00	7.984298e-01	5.063011e-02	6.756463e-02	3.049322e+00	1.093786e+00	1.054245e+00	6.412701e-01	1.605409e-01	
1.414398e+00	1.475083e+00	-2.986346e-09	8.966445e-01	7.388871e-01	2.553616e-01	-6.234251e-03	2.689518e+00	9.394762e-01	1.033796e+00	7.199056e-01	-1.480795e-01	
1.136337e-01	8.985368e-02	3.073537e-02	8.704774e-01	8.859761e-01	1.326046e-02	1.303436e-01	2.648130e+00	8.749580e-01	9.917430e-01	8.673273e-01	-2.771158e-01	
1.061531e+00	1.476018e+00	2.736736e-02	8.784604e-01	9.692028e-01	-1.808219e-01	4.674016e-02	2.698002e+00	8.573956e-01	9.630049e-01	9.612054e-01	-3.122407e-01	
9.592930e-01	1.497978e+00	-8.819000e-03	8.831248e-01	8.989912e-01	2.286309e-01	3.220838e-01	2.709025e+00	8.652502e-01	9.666942e-01	9.493724e-01	-2.965313e-01	
1.021535e+00	1.199468e-01	-1.505503e-03	1.084225e+00	8.838650e-01	8.028541e-02	8.911671e-02	3.239250e+00	1.148940e+00	1.045556e+00	6.754238e-01	2.708479e-01	
1.241196e+00	1.476018e+00	1.860201e-02	9.748090e-01	9.718197e-01	-2.135989e-01	-1.087674e-02	2.963216e+00	9.821336e-01	9.940780e-01	8.595026e-01	-6.276465e-02	
1.410501e+00	1.476457e+00	-2.975093e-04	8.178335e-01	7.422533e-01	3.564392e-01	4.531064e-01	2.518593e+00	7.914289e-01	9.548089e-01	9.873026e-01	-4.441740e-01	
1.350901e+00	1.448943e+00	-6.907951e-03	9.923535e-01	9.316106e-01	1.305563e-01	1.105355e-01	2.997980e+00	1.018377e+00	1.012539e+00	7.963128e-01	9.722858e-03	
9.191100e-02	1.038978e-01	2.567267e-02	7.640490e-01	9.117681e-01	-4.438380e-02	2.240847e-01	2.374006e+00	7.183333e-01	9.276289e-01	1.072301e+00	-5.903651e-01	
1.110806e+00	4.121233e-01	-6.155520e-04	1.056386e+00	8.509327e-01	5.264819e-02	1.304528e-01	3.154536e+00	1.120980e+00	1.046995e+00	6.698477e-01	2.149284e-01	
1.407164e+00	1.476323e+00	-8.877953e-04	8.721807e-01	8.206682e-01	4.076242e-01	2.128650e-01	2.666367e+00	8.636150e-01	9.769743e-01	9.160850e-01	-2.998017e-01	
7.130322e-03	8.913742e-03	7.740496e-03	1.239267e+00	3.777257e-01	2.249518e-01	4.374584e-01	3.626977e+00	1.388714e+00	1.105649e+00	3.995581e-01	7.503960e-01	
9.228888e-01	1.495146e+00	8.015445e-03	8.079582e-01	8.491992e-01	-3.184147e-02	2.805953e-01	2.477359e+00	7.926942e-01	9.680242e-01	9.450925e-01	-4.416435e-01	
1.409312e+00	1.476018e+00	-6.620466e-04	9.235086e-01	8.284174e-01	6.229976e-01	1.308652e-01	2.838649e+00	8.990725e-01	9.605572e-01	9.690260e-01	-2.288867e-01	
1.394703e+00	1.468306e+00	2.202063e-03	9.930223e-01	8.123784e-01	-1.059677e-01	-1.030249e-01	2.968845e+00	1.050219e+00	1.043495e+00	6.833538e-01	7.340706e-02	
1.395708e+00	1.477802e+00	1.620826e-03	9.659814e-01	8.198835e-01	-1.739190e-01	2.223541e-01	2.903784e+00	1.005838e+00	1.027374e+00	7.434762e-01	-1.535583e-02	
5.377034e-01	9.313676e-01	0.000000e+00	1.122625e+00	8.307083e-01	1.804100e-01	2.554886e-03	3.337391e+00	1.206217e+00	1.060132e+00	6.173963e-01	3.854020e-01	
3.227624e-01	3.316679e-01	3.634783e-02	7.875139e-01	9.555459e-01	-3.485450e-02	6.082689e-02	2.443174e+00	7.441352e-01	9.323159e-01	1.057787e+00	-5.387613e-01	
8.936526e-01	1.466849e+00	-1.929259e-02	8.450246e-01	8.144739e-01	2.290899e-01	-6.885834e-02	2.564730e+00	8.553428e-01	9.987120e-01	8.438704e-01	-3.163462e-01	
8.980385e-01	7.035590e-01	-3.061127e-02	9.165019e-01	8.891299e-01	2.016464e-02	5.818891e-02	2.773361e+00	9.360019e-01	1.007657e+00	8.132712e-01	-1.550280e-01	
7.799977e-01	1.463718e-01	2.868686e-02	8.811943e-01	9.554766e-01	1.202438e-02	-7.954738e-02	2.696525e+00	8.699370e-01	9.740597e-01	9.255723e-01	-2.871577e-01	
1.374359e+00	1.481196e+00	0.000000e+00	9.369543e-01	8.772103e-01	-1.008510e-03	3.843164e-01	2.848516e+00	9.436237e-01	9.936876e-01	8.608132e-01	-1.397844e-01	
1.401237e+00	1.470284e+00	1.462186e-03	1.001845e+00	7.797069e-01	-5.569212e-02	-7.930234e-02	2.984293e+00	1.070478e+00	1.054258e+00	6.412196e-01	1.139241e-01	
6.140748e-01	9.890827e-01	2.206134e-02	7.181815e-01	8.755925e-01	-4.251582e-02	2.273789e-01	2.239359e+00	6.673413e-01	9.168182e-01	1.105598e+00	-6.923492e-01	
1.091589e+00	4.101143e-01	2.924292e-03	1.090920e+00	9.074462e-01	9.017066e-02	-6.742837e-02	3.263268e+00	1.152017e+00	1.041923e+00	6.893640e-01	2.770023e-01	
1.012535e+00	4.462010e-02	-9.039451e-11	1.112342e+00	8.686433e-01	5.033886e-02	-1.580936e-02	3.312969e+00	1.189020e+00	1.054679e+00	6.395337e-01	3.510080e-01	
1.184912e+00	8.788795e-01	7.656155e-03	9.649920e-01	8.371634e-01	-1.005989e-02	-1.291883e-01	2.895965e+00	1.009652e+00	1.032328e+00	7.253364e-01	-7.726841e-03	
1.381843e+00	1.400132e+00	-1.423406e-03	1.100239e+00	9.791163e-01	1.482334e-01	1.023932e-01	3.309407e+00	1.143597e+00	1.025547e+00	7.501020e-01	2.601628e-01	
2.842655e-01	3.982227e-01	2.762037e-02	8.489271e-01	9.539085e-01	-2.135216e-02	2.194186e-01	2.615494e+00	8.203733e-01	9.534777e-01	9.915180e-01	-3.862852e-01	
1.373764e+00	1.342585e+00	-4.221709e-04	1.098293e+00	9.988166e-01	2.241023e-01	1.574081e-01	3.314611e+00	1.130517e+00	1.015613e+00	7.855324e-01	2.340018e-01	
1.135164e+00	4.983135e-01	5.976370e-04	1.083584e+00	9.050379e-01	6.601818e-02	-7.406796e-02	3.241854e+00	1.143742e+00	1.041442e+00	6.911966e-01	2.604529e-01	
9.485672e-01	1.521038e-01	1.158329e-02	9.754582e-01	9.083055e-01	1.958078e-02	-1.082831e-01	2.942582e+00	1.005395e+00	1.016945e+00	7.808347e-01	-1.624167e-02	
9.434589e-01	4.524399e-02	-8.568223e-03	1.012000e+00	9.540404e-01	6.538082e-03	1.163211e-01	3.056025e+00	1.039847e+00	1.013815e+00	7.918485e-01	5.266276e-02	
8.506561e-01	1.465393e+00	-8.767819e-03	9.974427e-01	6.124359e-01	4.560822e-01	-2.864250e-01	2.978801e+00	1.058154e+00	1.046719e+00	6.709191e-01	8.927598e-02	
9.666893e-01	4.480266e-01	1.864034e-02	9.596893e-01	9.487607e-01	3.273682e-02	-7.817827e-02	2.909460e+00	9.746957e-01	1.002093e+00	8.323746e-01	-7.764032e-02	
1.392736e+00	1.478744e+00	-6.923376e-04	9.325175e-01	8.601782e-01	7.809866e-02	4.772646e-01	2.845025e+00	9.291586e-01	9.831104e-01	8.959725e-01	-1.687147e-01	
9.750089e-01	0.000000e+00	-3.093361e-03	1.055887e+00	9.436859e-01	-8.406527e-05	1.157597e-01	3.174798e+00	1.098700e+00	1.026670e+00	7.460335e-01	1.703675e-01	
3.799025e-01	5.890309e-01	-2.417498e-02	9.797002e-01	8.360139e-01	5.565110e-02	-7.217116e-02	2.935373e+00	1.029773e+00	1.037093e+00	7.076155e-01	3.251493e-02	
1.413744e+00	1.476018e+00	-1.134529e-04	9.936874e-01	8.556049e-01	6.090784e-01	2.295055e-01	3.038833e+00	9.829231e-01	9.759762e-01	9.193387e-01	-6.118550e-02	
3.039581e-01	1.093645e-01	4.467317e-02	7.964183e-01	9.558482e-01	4.724940e-02	3.126048e-02	2.466852e+00	7.564961e-01	9.372057e-01	1.042587e+00	-5.140395e-01	
8.252919e-01	1.429506e+00	0.000000e+00	1.052636e+00	4.314526e-01	5.395798e-01	2.577712e-01	3.116893e+00	1.143447e+00	1.071783e+00	5.680493e-01	2.598613e-01	
1.378248e+00	1.429016e+00	2.872503e-03	1.046793e+00	9.104462e-01	-1.435520e-01	-1.136342e-01	3.143904e+00	1.092785e+00	1.030015e+00	7.338389e-01	1.585390e-01	
9.965139e-01	7.709970e-03	6.996026e-04	1.087086e+00	8.315582e-01	4.679626e-02	-9.812364e-02	3.235115e+00	1.164653e+00	1.057066e+00	6.299099e-01	3.022736e-01	
8.645907e-01	1.425382e+00	1.892883e-02	5.703693e-01	8.522592e-01	-5.404564e-02	4.649712e-02	1.832096e+00	4.763629e-01	8.240455e-01	1.386676e+00	-1.074306e+00	
2.430474e-01	4.187008e-01	-5.917693e-03	9.499515e-01	4.370507e-01	3.959921e-01	-1.108996e-03	2.798553e+00	1.046191e+00	1.086623e+00	4.999881e-01	6.535075e-02	
1.275978e+00	1.439138e+00	-1.459648e-02	9.699785e-01	9.668122e-01	9.520754e-02	9.430115e-02	2.944452e+00	9.813471e-01	9.982284e-01	8.455082e-01	-6.433766e-02	
2.505386e-02	4.078753e-02	6.712692e-03	1.173218e+00	4.540880e-01	5.132752e-01	4.659962e-01	3.475324e+00	1.273050e+00	1.070622e+00	5.731113e-01	5.190678e-01	
1.186653e+00	6.805036e-01	-5.597736e-04	1.013195e+00	7.756791e-01	6.440640e-02	1.399761e-01	3.017260e+00	1.083449e+00	1.055079e+00	6.379270e-01	1.398663e-01	
1.256844e+00	1.493079e+00	5.061801e-03	9.164993e-01	8.867942e-01	-1.622472e-01	3.271512e-01	2.792902e+00	9.164502e-01	9.866115e-01	8.844062e-01	-1.941314e-01	
1.363797e+00	1.476018e+00	6.272143e-03	9.397318e-01	7.871609e-01	-2.355447e-01	-6.827354e-02	2.820038e+00	9.833432e-01	1.032454e+00	7.248711e-01	-6.034536e-02	
9.899572e-01	7.418354e-03	-1.501114e-03	1.083889e+00	9.157621e-01	1.668494e-03	1.146083e-01	3.245713e+00	1.141118e+00	1.038760e+00	7.013525e-01	2.552043e-01	
6.635402e-01	7.998798e-01	-3.565706e-02	9.017188e-01	9.060292e-01	8.481782e-03	-2.553815e-02	2.736974e+00	9.125571e-01	9.985236e-01	8.445086e-01	-2.019176e-01	
1.383783e-01	5.770089e-02	3.620582e-02	8.824562e-01	9.330918e-01	-6.357531e-03	8.556969e-02	2.693261e+00	8.783090e-01	9.820275e-01	8.995362e-01	-2.704137e-01	
1.335579e+00	1.457314e+00	8.953490e-03	9.885072e-01	8.889875e-01	-1.325694e-01	-9.913514e-02	2.975880e+00	1.024910e+00	1.023000e+00	7.592773e-01	2.278906e-02	
1.207176e+00	1.330215e+00	-1.826963e-02	9.490262e-01	9.508613e-01	6.817151e-02	8.281940e-02	2.881403e+00	9.595962e-01	9.976535e-01	8.474535e-01	-1.078394e-01	
1.328431e+00	1.169078e+00	-2.366844e-09	9.761146e-01	7.062459e-01	2.691978e-02	7.753458e-02	2.895865e+00	1.054768e+00	1.066168e+00	5.922104e-01	8.250476e-02	
9.735784e-01	1.485419e+00	2.306551e-02	8.402625e-01	8.957551e-01	-1.589091e-01	1.167580e-01	2.572169e+00	8.286298e-01	9.730049e-01	9.289958e-01	-3.697721e-01	
5.276000e-02	2.401812e-02	2.754421e-02	8.071326e-01	8.745823e-01	1.951198e-02	1.491769e-01	2.472753e+00	7.939590e-01	9.705605e-01	9.369096e-01	-4.391138e-01	
1.001087e+00	2.389317e-02	-6.962392e-04	1.124316e+00	9.226660e-01	3.491055e-02	1.360607e-01	3.360998e+00	1.189453e+00	1.043826e+00	6.820844e-01	3.518741e-01	
1.004276e+00	3.523450e-01	1.162006e-02	9.803588e-01	9.027833e-01	4.002513e-02	-9.722534e-02	2.954526e+00	1.013286e+00	1.019803e+00	7.707021e-01	-4.601961e-04	
7.456684e-01	1.118926e+00	-2.712565e-02	8.999934e-01	8.987102e-01	2.791968e-02	-4.859542e-02	2.730523e+00	9.120254e-01	9.998550e-01	8.399924e-01	-2.029810e-01	
5.227580e-02	2.335358e-02	-2.752971e-02	1.044135e+00	9.715610e-01	3.855540e-03	-1.921093e-01	3.152722e+00	1.073211e+00	1.014140e+00	7.907093e-01	1.193895e-01	
8.776427e-01	1.483242e+00	1.369729e-02	6.925318e-01	9.218000e-01	7.169760e-02	1.326056e-01	2.182032e+00	6.208560e-01	8.845464e-01	1.203895e+00	-7.853198e-01	
1.409822e+00	1.476231e+00	-5.678634e-04	8.473647e-01	7.369757e-01	5.852886e-01	1.810787e-01	2.604521e+00	8.250222e-01	9.606490e-01	9.687331e-01	-3.769874e-01	
6.369872e-01	0.000000e+00	3.750183e-02	8.275526e-01	9.951958e-01	-2.203391e-03	-5.919386e-02	2.563976e+00	7.853824e-01	9.363862e-01	1.045139e+00	-4.562670e-01	
9.756207e-01	1.354897e-01	7.727952e-03	1.007772e+00	9.291299e-01	2.224731e-02	-1.155039e-01	3.037737e+00	1.041024e+00	1.019220e+00	7.727761e-01	5.501573e-02	
1.267399e+00	1.481386e+00	-1.557991e-02	9.536876e-01	9.502390e-01	1.333536e-01	1.114469e-01	2.896828e+00	9.630367e-01	9.963367e-01	8.519008e-01	-1.009583e-01	
9.847241e-01	0.000000e+00	1.890788e-03	1.057246e+00	8.903321e-01	-2.334395e-05	-1.094878e-01	3.165156e+00	1.113841e+00	1.039481e+00	6.986308e-01	2.006496e-01	
1.397766e+00	1.458000e+00	-1.464695e-03	1.038788e+00	9.382389e-01	2.291415e-01	1.100206e-01	3.133013e+00	1.071281e+00	1.017527e+00	7.787789e-01	1.155307e-01	
8.997649e-01	1.492708e+00	7.082052e-03	7.922633e-01	8.756880e-01	2.252886e-02	2.664260e-01	2.441542e+00	7.649901e-01	9.526989e-01	9.939812e-01	-4.970517e-01	
9.452849e-01	1.476018e+00	2.350008e-02	8.431170e-01	9.413302e-01	-9.516421e-02	7.662946e-02	2.590064e+00	8.222877e-01	9.622887e-01	9.634961e-01	-3.824564e-01	
1.412895e+00	1.476172e+00	-1.630568e-04	7.019833e-01	6.318301e-01	5.104614e-01	5.669498e-01	2.229068e+00	6.120729e-01	8.602918e-01	1.277181e+00	-8.028860e-01	
1.407055e+00	1.476879e+00	4.495206e-04	9.163864e-01	8.401596e-01	-1.613644e-01	1.793474e-01	2.768324e+00	9.405718e-01	1.012705e+00	7.957339e-01	-1.458881e-01	
8.504606e-01	1.433881e+00	-1.597340e-02	8.681925e-01	8.547469e-01	1.099340e-01	-1.358810e-01	2.635128e+00	8.787120e-01	9.986193e-01	8.441844e-01	-2.696077e-01	
1.088706e+00	3.490941e-01	-1.159261e-03	1.108542e+00	9.167200e-01	7.983948e-02	9.715506e-02	3.315057e+00	1.171552e+00	1.042746e+00	6.862210e-01	3.160716e-01	
1.404347e+00	1.477287e+00	-3.689346e-04	8.524197e-01	7.867987e-01	1.403024e-01	5.414799e-01	2.620471e+00	8.295315e-01	9.601716e-01	9.702557e-01	-3.679688e-01	
7.854218e-01	1.280635e+00	-2.050652e-02	1.007431e+00	8.797247e-01	1.921446e-02	-1.332828e-01	3.024730e+00	1.052651e+00	1.030952e+00	7.304025e-01	7.826961e-02	
1.399965e+00	1.477845e+00	4.596597e-04	9.020108e-01	8.043205e-01	-1.250697e-01	3.361563e-01	2.730485e+00	9.202282e-01	1.006591e+00	8.169477e-01	-1.865754e-01	
1.401058e+00	1.466933e+00	1.367891e-03	1.023294e+00	8.241643e-01	-9.892814e-02	-8.857195e-02	3.055561e+00	1.086021e+00	1.047147e+00	6.692604e-01	1.450112e-01	
1.342322e+00	1.484761e+00	-2.501930e-03	9.091436e-01	8.890426e-01	2.812329e-02	3.786055e-01	2.775119e+00	9.044629e-01	9.815846e-01	9.009920e-01	-2.181060e-01	
1.197329e+00	8.497115e-01	-5.122210e-03	9.920018e-01	8.305555e-01	6.073745e-02	1.096202e-01	2.969413e+00	1.045522e+00	1.039896e+00	6.970604e-01	6.401161e-02	
9.926380e-01	1.105020e-02	1.295557e-03	1.078964e+00	8.976796e-01	1.305806e-02	-1.136041e-01	3.227638e+00	1.139261e+00	1.041803e+00	6.898229e-01	2.514895e-01	
1.394001e+00	1.434003e+00	1.096267e-03	1.103554e+00	9.262181e-01	-1.478140e-01	-1.003400e-01	3.305487e+00	1.160934e+00	1.037967e+00	7.043375e-01	2.948370e-01	
4.667868e-01	8.064489e-01	5.263764e-03	1.104258e+00	8.918159e-01	1.258822e-01	2.447354e-01	3.305026e+00	1.164243e+00	1.040262e+00	6.956763e-01	3.014547e-01	
8.473343e-01	0.000000e+00	-1.826160e-02	9.645925e-01	9.928129e-01	1.144612e-03	1.000731e-01	2.936035e+00	9.679655e-01	9.901146e-01	8.727642e-01	-9.110071e-02	
7.670355e-01	1.211723e+00	-2.350021e-02	8.935909e-01	8.765190e-01	1.427874e-02	-6.284083e-02	2.706800e+00	9.098357e-01	1.004601e+00	8.237910e-01	-2.073604e-01	
7.960821e-01	1.348220e+00	-1.541388e-02	1.046152e+00	9.780912e-01	7.867213e-02	-2.503478e-01	3.164396e+00	1.069702e+00	1.008875e+00	8.090596e-01	1.123713e-01	
1.387372e+00	1.479524e+00	0.000000e+00	9.612155e-01	8.706774e-01	2.892316e-02	4.701538e-01	2.924452e+00	9.658806e-01	9.914530e-01	8.682967e-01	-9.527057e-02	
1.363902e+00	1.476018e+00	-6.259438e-03	9.654063e-01	9.263181e-01	2.173094e-01	1.327668e-01	2.927494e+00	9.798002e-01	1.001375e+00	8.348206e-01	-6.743145e-02	
1.357307e+00	1.482115e+00	3.961764e-03	9.067930e-01	8.671930e-01	-2.011005e-01	1.202663e-01	2.748602e+00	9.214664e-01	1.002630e+00	8.305386e-01	-1.840990e-01	
7.287167e-01	3.822111e-01	3.726813e-02	8.369219e-01	9.574455e-01	-5.047571e-03	-4.892043e-02	2.576373e+00	8.109060e-01	9.559936e-01	9.835456e-01	-4.052198e-01	
6.416904e-01	1.067155e+00	-1.874324e-02	9.524075e-01	9.052430e-01	4.796164e-02	-8.127899e-02	2.877598e+00	9.770860e-01	1.012231e+00	7.973900e-01	-7.285978e-02	
9.983253e-01	3.609762e-03	3.328147e-04	1.122316e+00	8.692316e-01	1.969845e-02	-1.098039e-01	3.342298e+00	1.200058e+00	1.055010e+00	6.382053e-01	3.730835e-01	
1.412930e+00	1.476018e+00	-2.141871e-04	9.201965e-01	7.809211e-01	6.992864e-01	1.441403e-01	2.834042e+00	8.902741e-01	9.545806e-01	9.880258e-01	-2.464836e-01	
1.336183e+00	1.270573e+00	2.569706e-03	1.030475e+00	7.559989e-01	1.740104e-02	-8.207760e-02	3.059243e+00	1.111405e+00	1.064153e+00	6.007039e-01	1.957777e-01	
1.356638e+00	1.473435e+00	7.040661e-03	9.415877e-01	8.372234e-01	-2.027164e-01	-1.039366e-01	2.836287e+00	9.746062e-01	1.021264e+00	7.654948e-01	-7.781938e-02	
1.050004e+00	1.779916e-01	-3.604032e-10	1.125187e+00	9.025618e-01	8.826506e-02	7.099945e-02	3.357895e+00	1.196080e+00	1.048830e+00	6.626958e-01	3.651286e-01	
8.991274e-01	7.786564e-02	-1.492134e-02	9.884962e-01	9.969189e-01	9.653149e-03	1.099025e-01	3.003065e+00	9.976808e-01	9.958319e-01	8.536027e-01	-3.167014e-02	
1.011600e+00	6.108994e-02	-6.885085e-04	1.118710e+00	9.301153e-01	2.714959e-02	1.426209e-01	3.347281e+00	1.180481e+00	1.041144e+00	6.923274e-01	3.339312e-01	
8.355395e-01	1.434280e+00	1.095966e-02	8.032088e-01	8.495942e-01	1.698468e-01	4.214935e-01	2.487131e+00	7.637006e-01	9.381324e-01	1.039700e+00	-4.996305e-01	
1.299014e+00	1.476018e+00	1.332955e-02	9.216714e-01	8.601265e-01	-2.674893e-01	-7.674894e-02	2.791163e+00	9.391225e-01	1.005346e+00	8.212333e-01	-1.487868e-01	
1.032283e+00	1.802012e-01	-2.270392e-03	1.092656e+00	1.000478e+00	4.655039e-02	1.095339e-01	3.291515e+00	1.130798e+00	1.021106e+00	7.660563e-01	2.345639e-01	
1.260609e+00	9.590810e-01	-1.092731e-03	1.019610e+00	8.379376e-01	2.094400e-02	1.071848e-01	3.047671e+00	1.079002e+00	1.044137e+00	6.808904e-01	1.309719e-01	
8.398276e-01	1.410772e+00	-1.659241e-02	9.207878e-01	8.338508e-01	7.161090e-02	-1.359684e-01	2.773474e+00	9.532356e-01	1.021434e+00	7.648868e-01	-1.205605e-01	
1.057909e+00	4.907479e-01	-9.851255e-03	1.008657e+00	9.120814e-01	4.687645e-02	9.719672e-02	3.035432e+00	1.046913e+00	1.024086e+00	7.553720e-01	6.679485e-02	
1.025627e+00	3.275391e-01	-8.211692e-03	1.015240e+00	9.621150e-01	1.594931e-02	1.212566e-01	3.067348e+00	1.041638e+00	1.012320e+00	7.970782e-01	5.624508e-02	
1.136851e+00	5.042825e-01	-5.963982e-04	1.085494e+00	8.489409e-01	1.234443e-01	1.563301e-01	3.238159e+00	1.155166e+00	1.049993e+00	6.581350e-01	2.832994e-01	
9.799752e-01	1.500842e+00	0.000000e+00	7.963141e-01	7.995500e-01	3.187450e-02	3.220592e-01	2.435566e+00	7.873607e-01	9.755708e-01	9.206588e-01	-4.523104e-01	
7.624992e-01	7.931772e-01	3.714028e-02	7.888663e-01	9.541488e-01	-9.051356e-02	-2.562917e-02	2.447028e+00	7.457553e-01	9.327437e-01	1.056459e+00	-5.355213e-01	
1.400549e+00	1.476018e+00	-1.746699e-03	8.728789e-01	8.456211e-01	3.934665e-01	2.270597e-01	2.674240e+00	8.585676e-01	9.704875e-01	9.371454e-01	-3.098966e-01	
1.385560e+00	1.465785e+00	3.246053e-03	9.830448e-01	8.110331e-01	-8.549314e-02	-1.117519e-01	2.940381e+00	1.038301e+00	1.042124e+00	6.885976e-01	4.956988e-02	
8.848178e-01	1.490782e+00	6.197348e-03	7.516033e-01	8.780689e-01	5.142135e-02	2.726464e-01	2.334011e+00	7.079573e-01	9.293682e-01	1.066921e+00	-6.111171e-01	
8.547912e-01	1.396893e+00	1.997687e-02	6.044750e-01	8.179749e-01	-9.954160e-02	7.023081e-02	1.909130e+00	5.373651e-01	8.771230e-01	1.226354e+00	-9.523016e-01	
5.445673e-02	9.432567e-02	0.000000e+00	1.187886e+00	3.597723e-01	4.590956e-01	2.028626e-01	3.479962e+00	1.327777e+00	1.102858e+00	4.155780e-01	6.285220e-01	
1.318258e+00	1.243603e+00	-3.850658e-03	1.038476e+00	8.822922e-01	7.341507e-02	9.681392e-02	3.111279e+00	1.091749e+00	1.037280e+00	7.069169e-01	1.564660e-01	
1.381419e+00	1.446572e+00	-3.090438e-03	1.030828e+00	9.392368e-01	1.438701e-01	1.077814e-01	3.106787e+00	1.065288e+00	1.019648e+00	7.712528e-01	1.035446e-01	
1.343538e+00	1.447725e+00	7.735396e-03	9.792143e-01	9.082136e-01	-1.212273e-01	-1.169132e-01	2.955318e+00	1.007862e+00	1.015530e+00	7.858259e-01	-1.130873e-02	
2.422307e-01	2.711556e-01	3.251388e-02	7.197222e-01	8.376662e-01	-9.376175e-02	1.068674e-01	2.223957e+00	6.889786e-01	9.445181e-01	1.019737e+00	-6.490746e-01	
1.058011e+00	2.466655e-01	1.396915e-03	1.030626e+00	7.830417e-01	8.874251e-02	-7.157700e-02	3.066262e+00	1.104995e+00	1.057862e+00	6.266794e-01	1.829591e-01	
1.396733e+00	1.476725e+00	-2.130257e-03	8.322967e-01	8.070972e-01	4.523674e-01	2.915889e-01	2.567640e+00	8.009189e-01	9.494668e-01	1.004183e+00	-4.251941e-01	
9.969261e-01	9.399414e-16	-3.804843e-04	1.145945e+00	9.435152e-01	7.061147e-03	1.132060e-01	3.425430e+00	1.212558e+00	1.044019e+00	6.813458e-01	3.980839e-01	
1.386205e+00	1.477220e+00	3.357912e-03	9.976820e-01	8.266893e-01	-1.333695e-01	3.455524e-02	2.984807e+00	1.053117e+00	1.041487e+00	6.910235e-01	7.920215e-02	
9.690876e-01	0.000000e+00	3.826092e-03	1.030487e+00	9.114460e-01	-5.387969e-04	-1.114839e-01	3.095957e+00	1.074739e+00	1.029035e+00	7.374267e-01	1.224467e-01	
1.242772e+00	1.476018e+00	-1.846808e-02	9.519946e-01	9.211323e-01	1.184936e-01	1.138129e-01	2.883527e+00	9.694857e-01	1.004792e+00	8.231346e-01	-8.806033e-02	
9.948939e-01	3.579117e-01	-1.289227e-02	1.001450e+00	9.645987e-01	1.913514e-02	1.090838e-01	3.029602e+00	1.023570e+00	1.008459e+00	8.105000e-01	2.010921e-02	
1.082757e+00	3.992928e-01	-3.641028e-03	1.051517e+00	8.945174e-01	6.277073e-02	1.045409e-01	3.150592e+00	1.105217e+00	1.037053e+00	7.077681e-01	1.834023e-01	
9.588529e-01	1.457661e+00	2.512778e-02	8.328865e-01	9.257804e-01	-7.107505e-02	5.548153e-02	2.556218e+00	8.147280e-01	9.651532e-01	9.543217e-01	-3.975757e-01	
9.809205e-01	2.380221e-01	-1.059253e-02	9.902725e-01	9.392748e-01	2.230756e-02	1.165072e-01	2.992113e+00	1.015822e+00	1.012121e+00	7.977715e-01	4.613212e-03	
9.810188e-01	8.530480e-02	5.315519e-03	1.024237e+00	8.993351e-01	3.832177e-02	-1.140921e-01	3.075831e+00	1.069571e+00	1.030335e+00	7.326678e-01	1.121099e-01	
1.412670e+00	1.476273e+00	5.811237e-07	8.562297e-01	6.745348e-01	1.261134e-01	6.673440e-01	2.628173e+00	8.372497e-01	9.647930e-01	9.554771e-01	-3.525323e-01	
1.307076e+00	1.116029e+00	-7.986075e-04	1.064827e+00	8.486016e-01	6.944909e-02	7.366424e-02	3.176331e+00	1.133351e+00	1.050158e+00	6.574868e-01	2.396693e-01	
1.020375e+00	7.252647e-02	-1.468906e-10	1.103430e+00	9.055134e-01	5.840665e-02	-9.257501e-03	3.296552e+00	1.169368e+00	1.045624e+00	6.751605e-01	3.117037e-01	
8.606456e-01	1.776503e-01	2.190605e-02	9.268608e-01	9.377572e-01	7.073043e-03	-8.926353e-02	2.816268e+00	9.350208e-01	9.953508e-01	8.552230e-01	-1.569902e-01	
1.243855e+00	1.487762e+00	1.461410e-02	9.239379e-01	9.101246e-01	-1.988814e-01	1.480955e-01	2.808623e+00	9.308360e-01	9.940308e-01	8.596613e-01	-1.653598e-01	
1.258793e+00	9.357673e-01	5.067179e-04	1.046710e+00	8.400210e-01	-5.685145e-02	-8.667048e-02	3.123741e+00	1.112614e+00	1.048788e+00	6.628602e-01	1.981969e-01	
1.387150e+00	1.443592e+00	2.277555e-03	1.061313e+00	9.645510e-01	-1.093858e-01	-1.157332e-01	3.196828e+00	1.098630e+00	1.021357e+00	7.651619e-01	1.702284e-01	
9.917800e-01	1.476018e+00	2.595722e-02	8.608878e-01	9.394770e-01	-1.838846e-01	7.503810e-02	2.641777e+00	8.424990e-01	9.655889e-01	9.529232e-01	-3.420338e-01	
1.130547e+00	4.646929e-01	-9.408261e-10	1.059586e+00	8.177516e-01	1.375204e-01	-2.447735e-02	3.155982e+00	1.132488e+00	1.054549e+00	6.400552e-01	2.379435e-01	
5.475755e-02	9.233227e-02	-6.539008e-03	1.410028e+00	4.166479e-01	5.649001e-01	9.655658e-02	4.127158e+00	1.579655e+00	1.105361e+00	4.012419e-01	1.132277e+00	
1.404992e+00	1.471928e+00	1.054639e-03	1.010448e+00	7.906169e-01	-8.456117e-02	-8.555835e-02	3.011556e+00	1.078036e+00	1.052661e+00	6.475872e-01	1.290398e-01	
1.411022e+00	1.474417e+00	-3.947717e-04	9.731797e-01	7.941187e-01	2.901213e-01	9.783509e-02	2.919729e+00	1.019026e+00	1.033146e+00	7.223141e-01	1.101987e-02	
6.635545e-01	1.134688e+00	-1.253942e-02	9.729236e-01	5.983364e-01	8.890761e-02	-2.390585e-01	2.874776e+00	1.062944e+00	1.077956e+00	5.405582e-01	9.885527e-02	
1.409622e+00	1.469465e+00	-3.958010e-04	9.904041e-01	8.257660e-01	1.927974e-01	1.108019e-01	2.968680e+00	1.039788e+00	1.035861e+00	7.122236e-01	5.254323e-02	
1.405648e+00	1.464079e+00	-7.004134e-04	1.034347e+00	8.230841e-01	1.727712e-01	9.152044e-02	3.089075e+00	1.097245e+00	1.046662e+00	6.711421e-01	1.674576e-01	
1.064189e+00	1.476018e+00	-2.736704e-02	8.943496e-01	9.382821e-01	1.641849e-01	3.685210e-02	2.730652e+00	8.890542e-01	9.808224e-01	9.034947e-01	-2.489233e-01	
3.828939e-01	5.042880e-01	3.141566e-02	8.171203e-01	1.010841e+00	-3.033655e-02	1.010762e-01	2.542828e+00	7.643077e-01	9.228937e-01	1.086915e+00	-4.984164e-01	
1.379495e+00	1.416386e+00	-2.279048e-03	1.038361e+00	8.920043e-01	1.103692e-01	1.136000e-01	3.114752e+00	1.087813e+00	1.033654e+00	7.204305e-01	1.485951e-01	
5.281487e-01	9.072781e-01	9.729799e-03	8.551003e-01	8.483397e-01	7.764045e-02	2.596063e-01	2.604537e+00	8.563152e-01	9.880662e-01	8.795806e-01	-3.144013e-01	
1.088684e+00	3.594512e-01	1.522298e-03	1.037313e+00	8.485972e-01	6.698088e-02	-3.632941e-02	3.098775e+00	1.099548e+00	1.045860e+00	6.742476e-01	1.720640e-01	
1.372228e+00	1.477932e+00	4.962319e-03	9.353523e-01	8.725337e-01	-3.347459e-01	-3.579139e-02	2.837626e+00	9.480299e-01	1.000037e+00	8.393725e-01	-1.309719e-01	
1.414644e+00	1.475958e+00	-2.988119e-09	8.917866e-01	5.246006e-01	2.062419e-01	5.549927e-03	2.628999e+00	9.803333e-01	1.084632e+00	5.095381e-01	-6.636511e-02	
8.203325e-01	1.352380e+00	1.913781e-02	6.783257e-01	8.480225e-01	-6.349120e-02	1.087795e-01	2.115788e+00	6.296033e-01	9.157948e-01	1.108738e+00	-7.678251e-01	
1.356910e+00	1.294102e+00	8.224353e-04	1.049820e+00	7.905916e-01	4.682881e-02	-7.688343e-02	3.121115e+00	1.127827e+00	1.059979e+00	6.180260e-01	2.286232e-01	
1.233969e+00	8.637767e-01	-1.076064e-03	1.041960e+00	8.465978e-01	6.101168e-02	1.279909e-01	3.113259e+00	1.103872e+00	1.045290e+00	6.764494e-01	1.807120e-01	
4.115036e-02	6.878913e-02	6.528145e-03	1.299531e+00	4.734532e-01	3.351930e-01	5.700858e-01	3.829576e+00	1.430023e+00	1.085740e+00	5.042425e-01	8.330136e-01	
9.049689e-01	1.129743e-01	1.536390e-02	9.591817e-01	9.575248e-01	1.329293e-02	-1.042529e-01	2.911128e+00	9.709737e-01	9.987943e-01	8.435915e-01	-8.508430e-02	
2.265544e-01	3.471618e-01	2.294223e-02	9.182226e-01	9.376592e-01	9.682731e-02	3.793934e-01	2.815159e+00	9.011683e-01	9.683389e-01	9.440787e-01	-2.246952e-01	
2.707520e-01	4.689752e-01	0.000000e+00	9.635904e-01	6.404797e-01	3.266305e-01	8.568649e-02	2.863397e+00	1.036548e+00	1.061369e+00	6.122964e-01	4.606437e-02	
1.414245e+00	1.476018e+00	5.149386e-05	1.017344e+00	8.345063e-01	3.468581e-01	-1.589957e-01	3.059307e+00	1.058196e+00	1.026284e+00	7.474338e-01	8.935959e-02	
2.821460e-01	2.261497e-01	-3.877569e-02	9.527077e-01	9.411378e-01	6.061397e-02	-5.114603e-02	2.887972e+00	9.679268e-01	1.002426e+00	8.312367e-01	-9.117822e-02	