<VTKFile type="UnstructuredGrid" byte_order="BigEndian">
<UnstructuredGrid><Piece NumberOfPoints="451" NumberOfCells="400">
<Points>
 <DataArray type="Float32" NumberOfComponents="3" format="ascii">
 0.000000000000000000e+00 0.000000000000000000e+00 0.000000000000000000e+00
 1.999999955296516418e-02 0.000000000000000000e+00 0.000000000000000000e+00
 3.999999910593032837e-02 0.000000000000000000e+00 0.000000000000000000e+00
 5.999999865889549255e-02 0.000000000000000000e+00 0.000000000000000000e+00
 7.999999821186065674e-02 0.000000000000000000e+00 0.000000000000000000e+00
 1.000000014901161194e-01 0.000000000000000000e+00 0.000000000000000000e+00
 1.199999973177909851e-01 0.000000000000000000e+00 0.000000000000000000e+00
 1.400000005960464478e-01 0.000000000000000000e+00 0.000000000000000000e+00
 1.599999964237213135e-01 0.000000000000000000e+00 0.000000000000000000e+00
 1.800000071525573730e-01 0.000000000000000000e+00 0.000000000000000000e+00
 2.000000029802322388e-01 0.000000000000000000e+00 0.000000000000000000e+00
 0.000000000000000000e+00 2.500000037252902985e-02 0.000000000000000000e+00
 1.999999955296516418e-02 2.500000037252902985e-02 0.000000000000000000e+00
 3.999999910593032837e-02 2.500000037252902985e-02 0.000000000000000000e+00
 5.999999865889549255e-02 2.500000037252902985e-02 0.000000000000000000e+00
 7.999999821186065674e-02 2.500000037252902985e-02 0.000000000000000000e+00
 1.000000014901161194e-01 2.500000037252902985e-02 0.000000000000000000e+00
 1.199999973177909851e-01 2.500000037252902985e-02 0.000000000000000000e+00
 1.400000005960464478e-01 2.500000037252902985e-02 0.000000000000000000e+00
 1.599999964237213135e-01 2.500000037252902985e-02 0.000000000000000000e+00
 1.800000071525573730e-01 2.500000037252902985e-02 0.000000000000000000e+00
 2.000000029802322388e-01 2.500000037252902985e-02 0.000000000000000000e+00
 0.000000000000000000e+00 5.000000074505805969e-02 0.000000000000000000e+00
 1.999999955296516418e-02 5.000000074505805969e-02 0.000000000000000000e+00
 3.999999910593032837e-02 5.000000074505805969e-02 0.000000000000000000e+00
 5.999999865889549255e-02 5.000000074505805969e-02 0.000000000000000000e+00
 7.999999821186065674e-02 5.000000074505805969e-02 0.000000000000000000e+00
 1.000000014901161194e-01 5.000000074505805969e-02 0.000000000000000000e+00
 1.199999973177909851e-01 5.000000074505805969e-02 0.000000000000000000e+00
 1.400000005960464478e-01 5.000000074505805969e-02 0.000000000000000000e+00
 1.599999964237213135e-01 5.000000074505805969e-02 0.000000000000000000e+00
 1.800000071525573730e-01 5.000000074505805969e-02 0.000000000000000000e+00
 2.000000029802322388e-01 5.000000074505805969e-02 0.000000000000000000e+00
 0.000000000000000000e+00 7.500000298023223877e-02 0.000000000000000000e+00
 1.999999955296516418e-02 7.500000298023223877e-02 0.000000000000000000e+00
 3.999999910593032837e-02 7.500000298023223877e-02 0.000000000000000000e+00
 5.999999865889549255e-02 7.500000298023223877e-02 0.000000000000000000e+00
 7.999999821186065674e-02 7.500000298023223877e-02 0.000000000000000000e+00
 1.000000014901161194e-01 7.500000298023223877e-02 0.000000000000000000e+00
 1.199999973177909851e-01 7.500000298023223877e-02 0.000000000000000000e+00
 1.400000005960464478e-01 7.500000298023223877e-02 0.000000000000000000e+00
 1.599999964237213135e-01 7.500000298023223877e-02 0.000000000000000000e+00
 1.800000071525573730e-01 7.500000298023223877e-02 0.000000000000000000e+00
 2.000000029802322388e-01 7.500000298023223877e-02 0.000000000000000000e+00
 0.000000000000000000e+00 1.000000014901161194e-01 0.000000000000000000e+00
 1.999999955296516418e-02 1.000000014901161194e-01 0.000000000000000000e+00
 3.999999910593032837e-02 1.000000014901161194e-01 0.000000000000000000e+00
 5.999999865889549255e-02 1.000000014901161194e-01 0.000000000000000000e+00
 7.999999821186065674e-02 1.000000014901161194e-01 0.000000000000000000e+00
 1.000000014901161194e-01 1.000000014901161194e-01 0.000000000000000000e+00
 1.199999973177909851e-01 1.000000014901161194e-01 0.000000000000000000e+00
 1.400000005960464478e-01 1.000000014901161194e-01 0.000000000000000000e+00
 1.599999964237213135e-01 1.000000014901161194e-01 0.000000000000000000e+00
 1.800000071525573730e-01 1.000000014901161194e-01 0.000000000000000000e+00
 2.000000029802322388e-01 1.000000014901161194e-01 0.000000000000000000e+00
 0.000000000000000000e+00 1.250000000000000000e-01 0.000000000000000000e+00
 1.999999955296516418e-02 1.250000000000000000e-01 0.000000000000000000e+00
 3.999999910593032837e-02 1.250000000000000000e-01 0.000000000000000000e+00
 5.999999865889549255e-02 1.250000000000000000e-01 0.000000000000000000e+00
 7.999999821186065674e-02 1.250000000000000000e-01 0.000000000000000000e+00
 1.000000014901161194e-01 1.250000000000000000e-01 0.000000000000000000e+00
 1.199999973177909851e-01 1.250000000000000000e-01 0.000000000000000000e+00
 1.400000005960464478e-01 1.250000000000000000e-01 0.000000000000000000e+00
 1.599999964237213135e-01 1.250000000000000000e-01 0.000000000000000000e+00
 1.800000071525573730e-01 1.250000000000000000e-01 0.000000000000000000e+00
 2.000000029802322388e-01 1.250000000000000000e-01 0.000000000000000000e+00
 0.000000000000000000e+00 1.500000059604644775e-01 0.000000000000000000e+00
 1.999999955296516418e-02 1.500000059604644775e-01 0.000000000000000000e+00
 3.999999910593032837e-02 1.500000059604644775e-01 0.000000000000000000e+00
 5.999999865889549255e-02 1.500000059604644775e-01 0.000000000000000000e+00
 7.999999821186065674e-02 1.500000059604644775e-01 0.000000000000000000e+00
 1.000000014901161194e-01 1.500000059604644775e-01 0.000000000000000000e+00
 1.199999973177909851e-01 1.500000059604644775e-01 0.000000000000000000e+00
 1.400000005960464478e-01 1.500000059604644775e-01 0.000000000000000000e+00
 1.599999964237213135e-01 1.500000059604644775e-01 0.000000000000000000e+00
 1.800000071525573730e-01 1.500000059604644775e-01 0.000000000000000000e+00
 2.000000029802322388e-01 1.500000059604644775e-01 0.000000000000000000e+00
 0.000000000000000000e+00 1.749999970197677612e-01 0.000000000000000000e+00
 1.999999955296516418e-02 1.749999970197677612e-01 0.000000000000000000e+00
 3.999999910593032837e-02 1.749999970197677612e-01 0.000000000000000000e+00
 5.999999865889549255e-02 1.749999970197677612e-01 0.000000000000000000e+00
 7.999999821186065674e-02 1.749999970197677612e-01 0.000000000000000000e+00
 1.000000014901161194e-01 1.749999970197677612e-01 0.000000000000000000e+00
 1.199999973177909851e-01 1.749999970197677612e-01 0.000000000000000000e+00
 1.400000005960464478e-01 1.749999970197677612e-01 0.000000000000000000e+00
 1.599999964237213135e-01 1.749999970197677612e-01 0.000000000000000000e+00
 1.800000071525573730e-01 1.749999970197677612e-01 0.000000000000000000e+00
 2.000000029802322388e-01 1.749999970197677612e-01 0.000000000000000000e+00
 0.000000000000000000e+00 2.000000029802322388e-01 0.000000000000000000e+00
 1.999999955296516418e-02 2.000000029802322388e-01 0.000000000000000000e+00
 3.999999910593032837e-02 2.000000029802322388e-01 0.000000000000000000e+00
 5.999999865889549255e-02 2.000000029802322388e-01 0.000000000000000000e+00
 7.999999821186065674e-02 2.000000029802322388e-01 0.000000000000000000e+00
 1.000000014901161194e-01 2.000000029802322388e-01 0.000000000000000000e+00
 1.199999973177909851e-01 2.000000029802322388e-01 0.000000000000000000e+00
 1.400000005960464478e-01 2.000000029802322388e-01 0.000000000000000000e+00
 1.599999964237213135e-01 2.000000029802322388e-01 0.000000000000000000e+00
 1.800000071525573730e-01 2.000000029802322388e-01 0.000000000000000000e+00
 2.000000029802322388e-01 2.000000029802322388e-01 0.000000000000000000e+00
 0.000000000000000000e+00 2.249999940395355225e-01 0.000000000000000000e+00
 1.999999955296516418e-02 2.249999940395355225e-01 0.000000000000000000e+00
 3.999999910593032837e-02 2.249999940395355225e-01 0.000000000000000000e+00
 5.999999865889549255e-02 2.249999940395355225e-01 0.000000000000000000e+00
 7.999999821186065674e-02 2.249999940395355225e-01 0.000000000000000000e+00
 1.000000014901161194e-01 2.249999940395355225e-01 0.000000000000000000e+00
 1.199999973177909851e-01 2.249999940395355225e-01 0.000000000000000000e+00
 1.400000005960464478e-01 2.249999940395355225e-01 0.000000000000000000e+00
 1.599999964237213135e-01 2.249999940395355225e-01 0.000000000000000000e+00
 1.800000071525573730e-01 2.249999940395355225e-01 0.000000000000000000e+00
 2.000000029802322388e-01 2.249999940395355225e-01 0.000000000000000000e+00
 0.000000000000000000e+00 2.500000000000000000e-01 0.000000000000000000e+00
 1.999999955296516418e-02 2.500000000000000000e-01 0.000000000000000000e+00
 3.999999910593032837e-02 2.500000000000000000e-01 0.000000000000000000e+00
 5.999999865889549255e-02 2.500000000000000000e-01 0.000000000000000000e+00
 7.999999821186065674e-02 2.500000000000000000e-01 0.000000000000000000e+00
 1.000000014901161194e-01 2.500000000000000000e-01 0.000000000000000000e+00
 1.199999973177909851e-01 2.500000000000000000e-01 0.000000000000000000e+00
 1.400000005960464478e-01 2.500000000000000000e-01 0.000000000000000000e+00
 1.599999964237213135e-01 2.500000000000000000e-01 0.000000000000000000e+00
 1.800000071525573730e-01 2.500000000000000000e-01 0.000000000000000000e+00
 2.000000029802322388e-01 2.500000000000000000e-01 0.000000000000000000e+00
 0.000000000000000000e+00 2.750000059604644775e-01 0.000000000000000000e+00
 1.999999955296516418e-02 2.750000059604644775e-01 0.000000000000000000e+00
 3.999999910593032837e-02 2.750000059604644775e-01 0.000000000000000000e+00
 5.999999865889549255e-02 2.750000059604644775e-01 0.000000000000000000e+00
 7.999999821186065674e-02 2.750000059604644775e-01 0.000000000000000000e+00
 1.000000014901161194e-01 2.750000059604644775e-01 0.000000000000000000e+00
 1.199999973177909851e-01 2.750000059604644775e-01 0.000000000000000000e+00
[...]
<CellData>
 <DataArray Name="pos.x" type="Float32" NumberOfComponents="1" format="ascii">
 1.000000000000000194e-02
 3.000000000000000583e-02
 5.000000000000000278e-02
 7.000000000000007605e-02
 8.999999999999999667e-02
 1.099999999999999728e-01
 1.300000000000001710e-01
 1.499999999999999389e-01
 1.700000000000002343e-01
 1.899999999999997247e-01
 1.000000000000000194e-02
 3.000000000000001277e-02
 5.000000000000000278e-02
 7.000000000000003442e-02
 8.999999999999999667e-02
 1.099999999999999728e-01
 1.300000000000001710e-01
 1.499999999999999389e-01
 1.700000000000002343e-01
 1.899999999999997247e-01
 1.000000000000000194e-02
 3.000000000000000930e-02
 4.999999999999999584e-02
 7.000000000000007605e-02
 9.000000000000001055e-02
 1.100000000000000006e-01
 1.300000000000001155e-01
 1.500000000000000500e-01
 1.699999999999997069e-01
 1.900000000000002520e-01
 1.000000000000000541e-02
 3.000000000000002318e-02
 5.000000000000000278e-02
 6.999999999999999278e-02
 9.000000000000003830e-02
 1.100000000000000006e-01
 1.300000000000000877e-01
 1.499999999999999667e-01
 1.700000000000000677e-01
 1.899999999999999745e-01
 1.000000000000000194e-02
 3.000000000000000236e-02
 5.000000000000003747e-02
 6.999999999999997891e-02
 9.000000000000003830e-02
 1.099999999999999728e-01
 1.299999999999999489e-01
 1.500000000000001055e-01
 1.700000000000000677e-01
 1.900000000000001132e-01
 1.000000000000000715e-02
 3.000000000000000930e-02
 5.000000000000002359e-02
 6.999999999999999278e-02
 9.000000000000003830e-02
 1.100000000000000144e-01
 1.299999999999998934e-01
 1.500000000000001332e-01
 1.699999999999999289e-01
 1.900000000000003630e-01
 1.000000000000000368e-02
 3.000000000000001277e-02
 5.000000000000001665e-02
 6.999999999999995115e-02
 9.000000000000002442e-02
 1.100000000000000144e-01
 1.299999999999997824e-01
 1.500000000000001055e-01
 1.700000000000000122e-01
 1.900000000000000300e-01
 9.999999999999998473e-03
 3.000000000000002665e-02
 5.000000000000000278e-02
 7.000000000000000666e-02
 9.000000000000003830e-02
 1.099999999999999728e-01
 1.299999999999999489e-01
 1.500000000000002442e-01
 1.699999999999999289e-01
 1.900000000000002243e-01
 9.999999999999998473e-03
 3.000000000000000583e-02
 5.000000000000001665e-02
 6.999999999999997891e-02
 8.999999999999998279e-02
 1.100000000000000283e-01
 1.299999999999997269e-01
 1.500000000000000500e-01
 1.700000000000002065e-01
 1.899999999999999190e-01
 1.000000000000000715e-02
 3.000000000000000930e-02
 5.000000000000003053e-02
 7.000000000000000666e-02
 9.000000000000003830e-02
 1.099999999999999728e-01
 1.299999999999999767e-01
 1.500000000000002165e-01
 1.700000000000000677e-01
 1.900000000000002520e-01
 1.000000000000000194e-02
 3.000000000000000583e-02
 5.000000000000000278e-02
 7.000000000000002054e-02
 9.000000000000001055e-02
 1.099999999999999867e-01
 1.299999999999999212e-01
 1.500000000000001332e-01
 1.699999999999997069e-01
 1.900000000000003630e-01
 1.000000000000000541e-02
 3.000000000000000236e-02
 5.000000000000001665e-02
 7.000000000000002054e-02
 9.000000000000003830e-02
 1.099999999999999867e-01
 1.300000000000000044e-01
 1.500000000000000222e-01
 1.699999999999997902e-01
 1.900000000000003630e-01
 1.000000000000000021e-02
 3.000000000000000236e-02
 5.000000000000000971e-02
 6.999999999999999278e-02
 9.000000000000003830e-02
 1.100000000000000144e-01
 1.299999999999998379e-01
 1.499999999999998834e-01
 1.700000000000000677e-01
 1.900000000000001132e-01
 1.000000000000001235e-02
 3.000000000000001624e-02
 4.999999999999999584e-02
 7.000000000000000666e-02
 9.000000000000005218e-02
 1.099999999999999450e-01
 1.300000000000000877e-01
 1.500000000000000222e-01
 1.700000000000002898e-01
 1.899999999999999745e-01
 9.999999999999998473e-03
 2.999999999999999889e-02
 5.000000000000003053e-02
 7.000000000000006217e-02
 8.999999999999987177e-02
 1.100000000000000699e-01
 1.299999999999999489e-01
 1.500000000000002442e-01
 1.699999999999998457e-01
 1.899999999999997524e-01
 1.000000000000000194e-02
 3.000000000000001971e-02
 4.999999999999998196e-02
 7.000000000000006217e-02
 9.000000000000003830e-02
 1.099999999999999867e-01
 1.299999999999999212e-01
 1.500000000000001332e-01
 1.700000000000002065e-01
 1.899999999999999190e-01
 1.000000000000000194e-02
 2.999999999999999195e-02
 5.000000000000002359e-02
 7.000000000000006217e-02
 9.000000000000003830e-02
 1.099999999999999867e-01
 1.299999999999999212e-01
 1.500000000000001332e-01
 1.699999999999999289e-01
 1.900000000000003630e-01
 1.000000000000000194e-02
 3.000000000000001277e-02
 5.000000000000000971e-02
 7.000000000000003442e-02
 8.999999999999992728e-02
 1.100000000000000699e-01
 1.300000000000000044e-01
 1.500000000000001887e-01
 1.699999999999997069e-01
 1.899999999999999190e-01
 1.000000000000000194e-02
 3.000000000000000583e-02
 5.000000000000000971e-02
 7.000000000000002054e-02
 8.999999999999998279e-02
 1.100000000000000006e-01
 1.300000000000000044e-01
 1.500000000000001610e-01
 1.700000000000001787e-01
 1.900000000000000300e-01
 1.000000000000000541e-02
 3.000000000000000930e-02
 5.000000000000000278e-02
 7.000000000000006217e-02
 8.999999999999995504e-02
 1.099999999999999867e-01
 1.300000000000000322e-01
 1.500000000000002165e-01
 1.699999999999997347e-01
 1.900000000000001688e-01
 1.000000000000000194e-02
 3.000000000000000583e-02
 5.000000000000001665e-02
 7.000000000000002054e-02
 9.000000000000003830e-02
 1.099999999999999867e-01
 1.299999999999999212e-01
 1.500000000000001332e-01
 1.699999999999997902e-01
 1.900000000000003630e-01
 1.000000000000000194e-02
 3.000000000000000583e-02
 5.000000000000001665e-02
 7.000000000000002054e-02
 9.000000000000003830e-02
 1.099999999999999867e-01
 1.299999999999999212e-01
 1.500000000000001332e-01
 1.699999999999997902e-01
 1.900000000000003630e-01
 1.000000000000001582e-02
 2.999999999999998848e-02
 5.000000000000001665e-02
 7.000000000000002054e-02
 9.000000000000003830e-02
 1.099999999999999867e-01
 1.299999999999999212e-01
 1.500000000000001332e-01
 1.699999999999997902e-01
 1.900000000000003630e-01
 9.999999999999996739e-03
 3.000000000000001624e-02
 5.000000000000001665e-02
 7.000000000000002054e-02
 9.000000000000003830e-02
 1.099999999999999867e-01
 1.299999999999999212e-01
 1.500000000000001332e-01
 1.699999999999999289e-01
 1.900000000000002243e-01
 9.999999999999995004e-03
 3.000000000000001971e-02
 4.999999999999999584e-02
 7.000000000000006217e-02
 8.999999999999999667e-02
 1.099999999999999450e-01
 1.300000000000000322e-01
 1.500000000000001887e-01
 1.700000000000000677e-01
 1.899999999999998912e-01
 1.000000000000000194e-02
 2.999999999999998848e-02
 4.999999999999999584e-02
 7.000000000000006217e-02
 9.000000000000001055e-02
 1.099999999999999867e-01
 1.299999999999999212e-01
 1.500000000000001332e-01
 1.700000000000002898e-01
 1.899999999999999190e-01
 1.000000000000000194e-02
 3.000000000000002318e-02
 4.999999999999999584e-02
 7.000000000000002054e-02
 9.000000000000005218e-02
 1.099999999999999867e-01
 1.299999999999999212e-01
 1.500000000000000777e-01
 1.700000000000002898e-01
 1.899999999999997802e-01
 1.000000000000001756e-02
 3.000000000000000930e-02
 4.999999999999997502e-02
 7.000000000000004829e-02
 9.000000000000005218e-02
 1.099999999999999867e-01
 1.299999999999999212e-01
 1.500000000000000777e-01
 1.700000000000004285e-01
 1.899999999999999190e-01
 9.999999999999989800e-03
 3.000000000000000236e-02
 5.000000000000004441e-02
 7.000000000000002054e-02
 9.000000000000005218e-02
 1.099999999999999867e-01
 1.299999999999999212e-01
 1.500000000000000777e-01
 1.700000000000002898e-01
 1.900000000000000577e-01
 1.000000000000000541e-02
 3.000000000000000583e-02
 5.000000000000003747e-02
 7.000000000000006217e-02
 8.999999999999999667e-02
 1.099999999999999450e-01
 1.300000000000000322e-01
 1.500000000000003553e-01
 1.699999999999996514e-01
 1.900000000000003075e-01
 1.000000000000001582e-02
 3.000000000000001971e-02
 4.999999999999998196e-02
 7.000000000000006217e-02
 9.000000000000003830e-02
 1.099999999999999867e-01
 1.300000000000000600e-01
 1.500000000000002165e-01
 1.699999999999994293e-01
 1.900000000000003630e-01
 9.999999999999989800e-03
 3.000000000000004052e-02
 4.999999999999999584e-02
 7.000000000000003442e-02
 9.000000000000003830e-02
 1.099999999999999867e-01
 1.299999999999999767e-01
 1.500000000000003275e-01
 1.699999999999996791e-01
 1.900000000000003630e-01
 1.000000000000000194e-02
 2.999999999999999195e-02
 5.000000000000003747e-02
 7.000000000000003442e-02
 9.000000000000003830e-02
 1.099999999999999867e-01
 1.299999999999999212e-01
 1.500000000000001610e-01
 1.699999999999994293e-01
 1.900000000000003630e-01
 1.000000000000000194e-02
 2.999999999999999889e-02
 5.000000000000003747e-02
 7.000000000000006217e-02
 9.000000000000003830e-02
 1.099999999999999867e-01
 1.299999999999999212e-01
 1.500000000000003275e-01
 1.699999999999996791e-01
 1.900000000000003630e-01
 1.000000000000000368e-02
 3.000000000000002318e-02
 5.000000000000000971e-02
 7.000000000000003442e-02
 8.999999999999999667e-02
 1.099999999999998757e-01
 1.300000000000001155e-01
 1.500000000000001887e-01
 1.699999999999997902e-01
 1.900000000000001688e-01
 1.000000000000000194e-02
 3.000000000000000583e-02
 4.999999999999999584e-02
 7.000000000000006217e-02
 8.999999999999999667e-02
 1.099999999999999173e-01
 1.299999999999999489e-01
 1.500000000000000222e-01
 1.699999999999996514e-01
 1.900000000000002243e-01
 1.000000000000000541e-02
 3.000000000000002665e-02
 5.000000000000001665e-02
 6.999999999999999278e-02
 8.999999999999996891e-02
 1.099999999999998479e-01
 1.300000000000001155e-01
 1.500000000000000222e-01
 1.700000000000000400e-01
 1.900000000000002243e-01
 1.000000000000000541e-02
 2.999999999999999889e-02
 5.000000000000004441e-02
 7.000000000000006217e-02
 8.999999999999999667e-02
 1.099999999999999173e-01
 1.299999999999999489e-01
 1.500000000000000500e-01
 1.700000000000000400e-01
 1.900000000000001132e-01
 9.999999999999989800e-03
 3.000000000000003011e-02
 4.999999999999999584e-02
 7.000000000000004829e-02
 8.999999999999996891e-02
 1.099999999999998479e-01
 1.299999999999999767e-01
 1.500000000000000222e-01
 1.699999999999998179e-01
 1.900000000000004463e-01
 1.000000000000001756e-02
 2.999999999999999889e-02
 4.999999999999997502e-02
 7.000000000000011768e-02
 8.999999999999999667e-02
 1.099999999999998757e-01
 1.300000000000001155e-01
 1.500000000000004940e-01
 1.699999999999996514e-01
 1.900000000000003075e-01
 </DataArray>
 <DataArray Name="pos.y" type="Float32" NumberOfComponents="1" format="ascii">
 1.250000000000000243e-02
 1.250000000000000243e-02
 1.250000000000000243e-02
 1.250000000000000937e-02
 1.249999999999999549e-02
 1.250000000000000069e-02
 1.250000000000000243e-02
 1.250000000000000416e-02
 1.250000000000001631e-02
 1.249999999999997294e-02
 3.750000000000000555e-02
 3.750000000000001249e-02
 3.750000000000001249e-02
 3.750000000000001249e-02
 3.749999999999998473e-02
 3.749999999999999861e-02
 3.750000000000004025e-02
 3.749999999999998473e-02
 3.750000000000006800e-02
 3.749999999999990841e-02
 6.250000000000000000e-02
 6.250000000000002776e-02
 6.249999999999999306e-02
 6.250000000000002776e-02
 6.250000000000001388e-02
 6.249999999999999306e-02
 6.250000000000005551e-02
 6.249999999999997224e-02
 6.249999999999993061e-02
 6.250000000000009714e-02
 8.750000000000006384e-02
 8.750000000000004996e-02
 8.749999999999999445e-02
 8.749999999999993894e-02
 8.750000000000006384e-02
 8.749999999999999445e-02
 8.750000000000004996e-02
 8.749999999999993894e-02
 8.750000000000003608e-02
 8.750000000000004996e-02
 1.124999999999999611e-01
 1.124999999999999889e-01
 1.125000000000000583e-01
 1.124999999999999334e-01
 1.124999999999999889e-01
 1.125000000000000167e-01
 1.124999999999999473e-01
 1.124999999999999750e-01
 1.124999999999999750e-01
 1.125000000000000305e-01
 1.375000000000000666e-01
 1.375000000000000111e-01
 1.375000000000000389e-01
 1.374999999999998723e-01
 1.375000000000000389e-01
 1.374999999999999001e-01
 1.375000000000000111e-01
 1.375000000000000111e-01
 1.374999999999999833e-01
 1.375000000000001499e-01
 1.625000000000000056e-01
 1.625000000000000056e-01
 1.624999999999999500e-01
 1.625000000000000333e-01
 1.624999999999999500e-01
 1.625000000000000888e-01
 1.624999999999997280e-01
 1.625000000000001721e-01
 1.624999999999999223e-01
 1.624999999999999500e-01
 1.875000000000000833e-01
 1.875000000000003053e-01
 1.875000000000000000e-01
 1.874999999999999445e-01
 1.875000000000003053e-01
 1.875000000000000000e-01
 1.874999999999998890e-01
 1.875000000000003608e-01
 1.874999999999998057e-01
 1.875000000000003053e-01
 2.124999999999998279e-01
 2.125000000000000777e-01
 2.125000000000001055e-01
 2.124999999999999389e-01
 2.124999999999997169e-01
 2.125000000000001610e-01
 2.124999999999996891e-01
 2.125000000000000777e-01
 2.125000000000001055e-01
 2.124999999999998834e-01
 2.375000000000000722e-01
 2.374999999999999889e-01
 2.375000000000001277e-01
 2.374999999999999334e-01
 2.375000000000000444e-01
 2.374999999999999889e-01
 2.374999999999998224e-01
 2.375000000000000722e-01
 2.374999999999999334e-01
 2.375000000000001554e-01
 2.624999999999999556e-01
 2.624999999999999556e-01
 2.625000000000000666e-01
 2.625000000000002331e-01
 2.625000000000000111e-01
 2.625000000000001221e-01
 2.625000000000000666e-01
 2.625000000000001221e-01
 2.624999999999997891e-01
 2.625000000000005107e-01
 2.875000000000000888e-01
 2.875000000000000888e-01
 2.875000000000001443e-01
 2.874999999999997558e-01
 2.875000000000001443e-01
 2.874999999999999223e-01
 2.874999999999998113e-01
 2.875000000000000333e-01
 2.874999999999998668e-01
 2.875000000000000888e-01
 3.125000000000001110e-01
 3.124999999999999445e-01
 3.125000000000002220e-01
 3.124999999999997780e-01
 3.124999999999999445e-01
 3.125000000000002220e-01
 3.124999999999999445e-01
 3.124999999999996669e-01
 3.125000000000002220e-01
 3.124999999999998890e-01
 3.374999999999998002e-01
 3.375000000000000222e-01
 3.374999999999996336e-01
 3.374999999999999112e-01
 3.375000000000001332e-01
 3.374999999999998002e-01
 3.375000000000001332e-01
 3.374999999999995226e-01
 3.375000000000001332e-01
 3.374999999999998002e-01
 3.625000000000003775e-01
 3.624999999999998779e-01
 3.625000000000007105e-01
 3.624999999999995448e-01
 3.624999999999997113e-01
 3.625000000000005995e-01
 3.624999999999997113e-01
 3.625000000000008216e-01
 3.624999999999996558e-01
 3.624999999999995448e-01
 3.875000000000002331e-01
 3.874999999999990674e-01
 3.875000000000000666e-01
 3.875000000000000666e-01
 3.875000000000006772e-01
 3.875000000000000111e-01
 3.875000000000003442e-01
 3.875000000000000111e-01
 3.875000000000003442e-01
 3.875000000000003997e-01
 4.124999999999991451e-01
 4.124999999999998113e-01
 4.125000000000006994e-01
 4.125000000000001998e-01
 4.124999999999996447e-01
 4.125000000000000888e-01
 4.124999999999993117e-01
 4.125000000000000888e-01
 4.124999999999993117e-01
 4.125000000000005884e-01
 4.375000000000003331e-01
 4.374999999999997780e-01
 4.374999999999993894e-01
 4.374999999999999445e-01
 4.375000000000003886e-01
 4.375000000000003886e-01
 4.375000000000000000e-01
 4.375000000000002220e-01
 4.375000000000000000e-01
 4.374999999999995559e-01
 4.625000000000005218e-01
 4.624999999999999667e-01
 4.624999999999996336e-01
 4.625000000000000777e-01
 4.624999999999991895e-01
 4.624999999999996891e-01
 4.625000000000001332e-01
 4.625000000000005218e-01
 4.624999999999996336e-01
 4.624999999999995226e-01
 4.874999999999994893e-01
 4.875000000000000444e-01
 4.875000000000005440e-01
 4.875000000000002109e-01
 4.874999999999999889e-01
 4.875000000000003220e-01
 4.875000000000004885e-01
 4.875000000000003220e-01
 4.874999999999999334e-01
 4.875000000000007105e-01
 5.124999999999996225e-01
 5.124999999999996225e-01
 5.124999999999997335e-01
 5.124999999999996225e-01
 5.125000000000001776e-01
 5.124999999999992895e-01
 5.124999999999997335e-01
 5.124999999999992895e-01
 5.124999999999997335e-01
 5.125000000000006217e-01
 5.375000000000003109e-01
 5.375000000000003109e-01
 5.375000000000004219e-01
 5.375000000000003109e-01
 5.375000000000008660e-01
 5.375000000000011990e-01
 5.375000000000004219e-01
 5.375000000000011990e-01
 5.375000000000004219e-01
 5.375000000000014211e-01
 5.624999999999996669e-01
 5.625000000000007772e-01
 5.625000000000000000e-01
 5.624999999999997780e-01
 5.624999999999993339e-01
 5.624999999999995559e-01
 5.624999999999987788e-01
 5.624999999999995559e-01
 5.624999999999987788e-01
 5.624999999999997780e-01
 5.874999999999996891e-01
 5.875000000000006883e-01
 5.875000000000006883e-01
 5.875000000000004663e-01
 5.875000000000000222e-01
 5.875000000000001332e-01
 5.874999999999995781e-01
 5.875000000000001332e-01
 5.875000000000006883e-01
 5.875000000000005773e-01
 6.124999999999996003e-01
 6.124999999999997113e-01
 6.124999999999991562e-01
 6.124999999999997113e-01
 6.125000000000005995e-01
 6.125000000000000444e-01
 6.125000000000011546e-01
 6.125000000000005995e-01
 6.125000000000000444e-01
 6.124999999999988232e-01
 6.375000000000007327e-01
 6.375000000000011768e-01
 6.375000000000003997e-01
 6.375000000000000666e-01
 6.374999999999991784e-01
 6.375000000000003997e-01
 6.374999999999986233e-01
 6.375000000000003997e-01
 6.375000000000009548e-01
 6.374999999999997335e-01
 6.625000000000001998e-01
 6.624999999999994227e-01
 6.625000000000008660e-01
 6.625000000000005329e-01
 6.625000000000015321e-01
 6.624999999999998668e-01
 6.625000000000016431e-01
 6.624999999999998668e-01
 6.625000000000027534e-01
 6.625000000000004219e-01
 6.874999999999990008e-01
 6.874999999999992228e-01
 6.874999999999984457e-01
 6.874999999999997780e-01
 6.874999999999988898e-01
 6.874999999999994449e-01
 6.874999999999976685e-01
 6.874999999999993339e-01
 6.875000000000000000e-01
 6.874999999999976685e-01
 7.124999999999980238e-01
 7.125000000000006883e-01
 7.125000000000013545e-01
 7.124999999999971356e-01
 7.125000000000006883e-01
 7.124999999999989120e-01
 7.124999999999994671e-01
 7.125000000000000222e-01
 7.125000000000006883e-01
 7.124999999999995781e-01
 7.375000000000023759e-01
 7.375000000000012657e-01
 7.375000000000002665e-01
 7.375000000000007105e-01
 7.375000000000000444e-01
 7.375000000000015987e-01
 7.375000000000005995e-01
 7.375000000000023759e-01
 7.374999999999969358e-01
 7.375000000000005995e-01
 7.624999999999996225e-01
 7.624999999999985123e-01
 7.624999999999989564e-01
 7.624999999999996225e-01
 7.625000000000015099e-01
 7.625000000000026201e-01
 7.625000000000029532e-01
 7.625000000000001776e-01
 7.624999999999982903e-01
 7.625000000000021760e-01
 7.875000000000016431e-01
 7.874999999999977573e-01
 7.874999999999996447e-01
 7.875000000000001998e-01
 7.875000000000010880e-01
 7.874999999999974243e-01
 7.874999999999995337e-01
 7.874999999999986455e-01
 7.875000000000015321e-01
 7.875000000000017542e-01
 8.124999999999996669e-01
 8.125000000000006661e-01
 8.125000000000016653e-01
 8.125000000000019984e-01
 8.125000000000006661e-01
 8.125000000000015543e-01
 8.125000000000000000e-01
 8.125000000000002220e-01
 8.124999999999972244e-01
 8.125000000000013323e-01
 8.374999999999969136e-01
 8.374999999999981348e-01
 8.375000000000002442e-01
 8.374999999999985789e-01
 8.374999999999979128e-01
 8.374999999999988010e-01
 8.374999999999972466e-01
 8.375000000000013545e-01
 8.374999999999983569e-01
 8.374999999999986899e-01
 8.625000000000005995e-01
 8.624999999999961586e-01
 8.624999999999972689e-01
 8.625000000000019318e-01
 8.625000000000005995e-01
 8.624999999999973799e-01
 8.625000000000012657e-01
 8.625000000000005995e-01
 8.624999999999997113e-01
 8.625000000000012657e-01
 8.875000000000006217e-01
 8.875000000000006217e-01
 8.874999999999982903e-01
 8.875000000000009548e-01
 8.875000000000017319e-01
 8.875000000000001776e-01
 8.875000000000017319e-01
 8.875000000000008438e-01
 8.874999999999964029e-01
 8.875000000000000666e-01
 9.125000000000024203e-01
 9.125000000000011990e-01