<VTKFile type="UnstructuredGrid" byte_order="BigEndian">
<UnstructuredGrid><Piece NumberOfPoints="1271" NumberOfCells="1200">
<Points>
 <DataArray type="Float32" NumberOfComponents="3" format="ascii">
 2.000000029802322388e-01 0.000000000000000000e+00 0.000000000000000000e+00
 2.266666740179061890e-01 9.705999866127967834e-03 0.000000000000000000e+00
 2.533333301544189453e-01 1.941199973225593567e-02 0.000000000000000000e+00
 2.800000011920928955e-01 2.911799959838390350e-02 0.000000000000000000e+00
 3.066666722297668457e-01 3.882399946451187134e-02 0.000000000000000000e+00
 3.333333432674407959e-01 4.853000119328498840e-02 0.000000000000000000e+00
 3.600000143051147461e-01 5.823599919676780701e-02 0.000000000000000000e+00
 3.866666555404663086e-01 6.794200092554092407e-02 0.000000000000000000e+00
 4.133333265781402588e-01 7.764799892902374268e-02 0.000000000000000000e+00
 4.399999976158142090e-01 8.735399693250656128e-02 0.000000000000000000e+00
 4.666666686534881592e-01 9.706000238656997681e-02 0.000000000000000000e+00
 4.933333396911621094e-01 1.067660003900527954e-01 0.000000000000000000e+00
 5.199999809265136719e-01 1.164719983935356140e-01 0.000000000000000000e+00
 5.466666817665100098e-01 1.261779963970184326e-01 0.000000000000000000e+00
 5.733333230018615723e-01 1.358840018510818481e-01 0.000000000000000000e+00
 6.000000238418579102e-01 1.455900073051452637e-01 0.000000000000000000e+00
 6.266666650772094727e-01 1.552959978580474854e-01 0.000000000000000000e+00
 6.533333063125610352e-01 1.650020033121109009e-01 0.000000000000000000e+00
 6.800000071525573730e-01 1.747079938650131226e-01 0.000000000000000000e+00
 7.066666483879089355e-01 1.844139993190765381e-01 0.000000000000000000e+00
 7.333333492279052734e-01 1.941200047731399536e-01 0.000000000000000000e+00
 7.599999904632568359e-01 2.038259953260421753e-01 0.000000000000000000e+00
 7.866666913032531738e-01 2.135320007801055908e-01 0.000000000000000000e+00
 8.133333325386047363e-01 2.232380062341690063e-01 0.000000000000000000e+00
 8.399999737739562988e-01 2.329439967870712280e-01 0.000000000000000000e+00
 8.666666746139526367e-01 2.426500022411346436e-01 0.000000000000000000e+00
 8.933333158493041992e-01 2.523559927940368652e-01 0.000000000000000000e+00
 9.200000166893005371e-01 2.620620131492614746e-01 0.000000000000000000e+00
 9.466666579246520996e-01 2.717680037021636963e-01 0.000000000000000000e+00
 9.733333587646484375e-01 2.814739942550659180e-01 0.000000000000000000e+00
 1.000000000000000000e+00 2.911800146102905273e-01 0.000000000000000000e+00
 2.000000029802322388e-01 2.500000037252902985e-02 0.000000000000000000e+00
 2.257413268089294434e-01 3.340017795562744141e-02 0.000000000000000000e+00
 2.514826655387878418e-01 4.180035367608070374e-02 0.000000000000000000e+00
 2.772240042686462402e-01 5.020053312182426453e-02 0.000000000000000000e+00
 3.035489320755004883e-01 5.935406684875488281e-02 0.000000000000000000e+00
 3.298738300800323486e-01 6.850760430097579956e-02 0.000000000000000000e+00
 3.561987578868865967e-01 7.766114175319671631e-02 0.000000000000000000e+00
 3.827785551548004150e-01 8.722776919603347778e-02 0.000000000000000000e+00
 4.093583226203918457e-01 9.679440408945083618e-02 0.000000000000000000e+00
 4.359380900859832764e-01 1.063610315322875977e-01 0.000000000000000000e+00
 4.626318812370300293e-01 1.161179468035697937e-01 0.000000000000000000e+00
 4.893256723880767822e-01 1.258748471736907959e-01 0.000000000000000000e+00
 5.160194635391235352e-01 1.356317698955535889e-01 0.000000000000000000e+00
 5.427688360214233398e-01 1.454554498195648193e-01 0.000000000000000000e+00
 5.695182085037231445e-01 1.552791446447372437e-01 0.000000000000000000e+00
 5.962675809860229492e-01 1.651028394699096680e-01 0.000000000000000000e+00
 6.230419874191284180e-01 1.749103069305419922e-01 0.000000000000000000e+00
 6.498163938522338867e-01 1.847177594900131226e-01 0.000000000000000000e+00
 6.765908002853393555e-01 1.945252269506454468e-01 0.000000000000000000e+00
 7.033776044845581055e-01 2.042549699544906616e-01 0.000000000000000000e+00
 7.301644086837768555e-01 2.139847129583358765e-01 0.000000000000000000e+00
 7.569512128829956055e-01 2.237144708633422852e-01 0.000000000000000000e+00
 7.837704420089721680e-01 2.333359569311141968e-01 0.000000000000000000e+00
 8.105897307395935059e-01 2.429574579000473022e-01 0.000000000000000000e+00
 8.374089598655700684e-01 2.525789439678192139e-01 0.000000000000000000e+00
 8.643430471420288086e-01 2.620791196823120117e-01 0.000000000000000000e+00
 8.912771344184875488e-01 2.715792953968048096e-01 0.000000000000000000e+00
 9.182112216949462891e-01 2.810794711112976074e-01 0.000000000000000000e+00
 9.454741477966308594e-01 2.903531491756439209e-01 0.000000000000000000e+00
 9.727370738983154297e-01 2.996268272399902344e-01 0.000000000000000000e+00
 1.000000000000000000e+00 3.089005053043365479e-01 0.000000000000000000e+00
 2.000000029802322388e-01 5.000000074505805969e-02 0.000000000000000000e+00
 2.248159945011138916e-01 5.709435418248176575e-02 0.000000000000000000e+00
 2.496320009231567383e-01 6.418871134519577026e-02 0.000000000000000000e+00
 2.744480073451995850e-01 7.128306478261947632e-02 0.000000000000000000e+00
 3.004311919212341309e-01 7.988413423299789429e-02 0.000000000000000000e+00
 3.264143466949462891e-01 8.848521113395690918e-02 0.000000000000000000e+00
 3.523975312709808350e-01 9.708628058433532715e-02 0.000000000000000000e+00
 3.788904249668121338e-01 1.065135449171066284e-01 0.000000000000000000e+00
 4.053833186626434326e-01 1.159408017992973328e-01 0.000000000000000000e+00
 4.318762123584747314e-01 1.253680735826492310e-01 0.000000000000000000e+00
 4.585970938205718994e-01 1.351758837699890137e-01 0.000000000000000000e+00
 4.853180050849914551e-01 1.449837088584899902e-01 0.000000000000000000e+00
 5.120388865470886230e-01 1.547915190458297729e-01 0.000000000000000000e+00
 5.388709902763366699e-01 1.647329032421112061e-01 0.000000000000000000e+00
 5.657030940055847168e-01 1.746743023395538330e-01 0.000000000000000000e+00
 5.925351381301879883e-01 1.846156865358352661e-01 0.000000000000000000e+00
 6.194173097610473633e-01 1.945246011018753052e-01 0.000000000000000000e+00
 6.462994813919067383e-01 2.044335305690765381e-01 0.000000000000000000e+00
 6.731816530227661133e-01 2.143424451351165771e-01 0.000000000000000000e+00
 7.000885605812072754e-01 2.240959405899047852e-01 0.000000000000000000e+00
 7.269954681396484375e-01 2.338494360446929932e-01 0.000000000000000000e+00
 7.539023756980895996e-01 2.436029314994812012e-01 0.000000000000000000e+00
 7.808742523193359375e-01 2.531399130821228027e-01 0.000000000000000000e+00
 8.078460693359375000e-01 2.626768946647644043e-01 0.000000000000000000e+00
 8.348179459571838379e-01 2.722138762474060059e-01 0.000000000000000000e+00
 8.620194196701049805e-01 2.815082371234893799e-01 0.000000000000000000e+00
 8.892209529876708984e-01 2.908025979995727539e-01 0.000000000000000000e+00
 9.164224863052368164e-01 3.000969290733337402e-01 0.000000000000000000e+00
 9.442816376686096191e-01 3.089382946491241455e-01 0.000000000000000000e+00
 9.721408486366271973e-01 3.177796602249145508e-01 0.000000000000000000e+00
 1.000000000000000000e+00 3.266209959983825684e-01 0.000000000000000000e+00
 2.000000029802322388e-01 7.500000298023223877e-02 0.000000000000000000e+00
 2.238906621932983398e-01 8.078853040933609009e-02 0.000000000000000000e+00
 2.477813363075256348e-01 8.657706528902053833e-02 0.000000000000000000e+00
 2.716720104217529297e-01 9.236559271812438965e-02 0.000000000000000000e+00
 2.973134219646453857e-01 1.004142016172409058e-01 0.000000000000000000e+00
 3.229548633098602295e-01 1.084628105163574219e-01 0.000000000000000000e+00
 3.485963046550750732e-01 1.165114194154739380e-01 0.000000000000000000e+00
 3.750022947788238525e-01 1.257993131875991821e-01 0.000000000000000000e+00
 4.014083147048950195e-01 1.350872069597244263e-01 0.000000000000000000e+00
 4.278143048286437988e-01 1.443751007318496704e-01 0.000000000000000000e+00
 4.545623362064361572e-01 1.542338281869888306e-01 0.000000000000000000e+00
 4.813103377819061279e-01 1.640925556421279907e-01 0.000000000000000000e+00
 5.080583691596984863e-01 1.739512830972671509e-01 0.000000000000000000e+00
 5.349731445312500000e-01 1.840103715658187866e-01 0.000000000000000000e+00
 5.618879199028015137e-01 1.940694451332092285e-01 0.000000000000000000e+00
 5.888026952743530273e-01 2.041285187005996704e-01 0.000000000000000000e+00
 6.157926321029663086e-01 2.141389101743698120e-01 0.000000000000000000e+00
 6.427825689315795898e-01 2.241492867469787598e-01 0.000000000000000000e+00
 6.697725057601928711e-01 2.341596782207489014e-01 0.000000000000000000e+00
 6.967995166778564453e-01 2.439369112253189087e-01 0.000000000000000000e+00
 7.238265275955200195e-01 2.537141442298889160e-01 0.000000000000000000e+00
 7.508535981178283691e-01 2.634913921356201172e-01 0.000000000000000000e+00
 7.779780030250549316e-01 2.729438841342926025e-01 0.000000000000000000e+00
 8.051024675369262695e-01 2.823963463306427002e-01 0.000000000000000000e+00
 8.322268724441528320e-01 2.918488383293151855e-01 0.000000000000000000e+00
 8.596958518028259277e-01 3.009373545646667480e-01 0.000000000000000000e+00
 8.871647715568542480e-01 3.100258708000183105e-01 0.000000000000000000e+00
 9.146336913108825684e-01 3.191144168376922607e-01 0.000000000000000000e+00
 9.430891275405883789e-01 3.275234401226043701e-01 0.000000000000000000e+00
 9.715445637702941895e-01 3.359324634075164795e-01 0.000000000000000000e+00
 1.000000000000000000e+00 3.443414866924285889e-01 0.000000000000000000e+00
 2.000000029802322388e-01 1.000000014901161194e-01 0.000000000000000000e+00
 2.229653298854827881e-01 1.044827103614807129e-01 0.000000000000000000e+00
 2.459306716918945312e-01 1.089654192328453064e-01 0.000000000000000000e+00
 2.688960134983062744e-01 1.134481281042098999e-01 0.000000000000000000e+00
[...]
<CellData>
 <DataArray Name="pos.x" type="Float32" NumberOfComponents="1" format="ascii">
 2.130155204640096223e-01
 2.392187891526792454e-01
 2.654219938189417705e-01
 2.918200766333107210e-01
 3.183155083847079569e-01
 3.448109252617857501e-01
 3.714007403048166789e-01
 3.980239389081113854e-01
 4.246471372549240897e-01
 4.513131659738751633e-01
 4.779933857636512462e-01
 5.046736055733916926e-01
 5.313719367609132105e-01
 5.580799479534847007e-01
 5.847879592218572231e-01
 6.114993127564577469e-01
 6.382198795520730439e-01
 6.649404462047464603e-01
 6.916554483652903595e-01
 7.183822165712957508e-01
 7.451089848545109362e-01
 7.718309724517726789e-01
 7.985738893760712109e-01
 8.253168056956983190e-01
 8.520699020871258522e-01
 8.788699546013750696e-01
 9.056699971731893006e-01
 9.325108314527950082e-01
 9.594740142783111381e-01
 9.864370824367079127e-01
 2.125528411315643629e-01
 2.378307477869985032e-01
 2.631085851601107084e-01
 2.888731651524231725e-01
 3.150268453676015046e-01
 3.411805102006186252e-01
 3.675560591267668098e-01
 3.940923702794107975e-01
 4.206286811732964925e-01
 4.472648273546916964e-01
 4.739721634206929823e-01
 5.006794995065970699e-01
 5.274327417950736008e-01
 5.542234601356028634e-01
 5.810141785513310841e-01
 6.078207661521627392e-01
 6.346490846915673334e-01
 6.614774030893437740e-01
 6.883063440087668905e-01
 7.151532337463031297e-01
 7.420001235603800316e-01
 7.688584573201819872e-01
 7.957539643249816885e-01
 8.226494707306836185e-01
 8.496125496617156214e-01
 8.766800291885786800e-01
 9.037474989329609132e-01
 9.310201123686783209e-01
 9.585795793249944907e-01
 9.861389361591305081e-01
 2.120901608007312589e-01
 2.364427030170158095e-01
 2.607951700154328978e-01
 2.859262524231080960e-01
 3.117381808701528145e-01
 3.375500934008972553e-01
 3.637113779202305053e-01
 3.901608016211230434e-01
 4.166102250609461932e-01
 4.432164887375110718e-01
 4.699509410797121922e-01
 4.966853934417595484e-01
 5.234935468390743418e-01
 5.503669723272357484e-01
 5.772403978899901533e-01
 6.041422195185844890e-01
 6.310782898028858279e-01
 6.580143599468494253e-01
 6.849572396082458381e-01
 7.119242508787713142e-01
 7.388912622251756490e-01
 7.658859422368514691e-01
 7.929340393206043558e-01
 8.199821358107550751e-01
 8.471551977320326277e-01
 8.744901042375584632e-01
 9.018250011167584512e-01
 9.295293965727542407e-01
 9.576851465506778238e-01
 9.858407906865007675e-01
 2.116274793505415752e-01
 2.350546544107666724e-01
 2.584817475211209636e-01
 2.829793383861649581e-01
 3.084495148206888304e-01
 3.339196747766269846e-01
 3.598666966848634297e-01
 3.862292329328852469e-01
 4.125917689174887770e-01
 4.391681501223264061e-01
 4.659297187406981067e-01
 4.926912873788667491e-01
 5.195543518928070759e-01
 5.465104845282764412e-01
 5.734666172377509419e-01
 6.004636728561018044e-01
 6.275074948863901270e-01
 6.545513167776175756e-01
 6.816081351642970798e-01
 7.086952679692524182e-01
 7.357824008494331380e-01
 7.629134272010775764e-01
 7.901141143622427698e-01
 8.173148009352315668e-01
 8.446978462855744274e-01
 8.723001797364990928e-01
 8.999025037135590654e-01
 9.280386838764623780e-01
 9.567907158263673217e-01
 9.855426459695695307e-01
 2.113862860688067724e-01
 2.342053013013347673e-01
 2.570243172904810858e-01
 2.809281205139549931e-01
 3.059657983599309850e-01
 3.310034668845046046e-01
 3.566026032660084000e-01
 3.827477764452574815e-01
 4.088929332312686848e-01
 4.353373160162667954e-01
 4.620433578357707183e-01
 4.887493954175280431e-01
 5.156207764176343744e-01
 5.426274052376043322e-01
 5.696340338195601261e-01
 5.967266122348593438e-01
 6.238925082841146885e-01
 6.510584043645991636e-01
 6.782677484448195182e-01
 7.055277788125027261e-01
 7.327878096076873016e-01
 7.601143652055251110e-01
 7.875341350286371167e-01
 8.149539062879727069e-01
 8.425948615591662971e-01
 8.704953981408976027e-01
 8.983959253802393796e-01
 9.269408736281586902e-01
 9.561453937681075876e-01
 9.853498896406535090e-01
 2.112399365795182005e-01
 2.337662528480398128e-01
 2.562925698935377694e-01
 2.797881910924768789e-01
 3.043022186643335458e-01
 3.288162364634105161e-01
 3.539799737230914234e-01
 3.797780293149087827e-01
 4.055760679485550524e-01
 4.317780187539742576e-01
 4.583462479133876277e-01
 4.849144727705994584e-01
 5.117261365398705353e-01
 5.387510959268348998e-01
 5.657760550757322537e-01
 5.929459770556110287e-01
 6.202482047587157821e-01
 6.475504324927374711e-01
 6.749406857056921005e-01
 7.024261808793611506e-01
 7.299116764737697549e-01
 7.574936042639671685e-01
 7.851986633917703573e-01
 8.129037239289457206e-01
 8.408517623363124249e-01
 8.690812283076420064e-01
 8.973106851314270882e-01
 9.261735533673848275e-01
 9.556850012454976007e-01
 9.851964253372212932e-01
 2.110935870953360161e-01
 2.333272044106521892e-01
 2.555608225241348119e-01
 2.786482612825381677e-01
 3.026386383581413098e-01
 3.266290051760307178e-01
 3.513573429546997251e-01
 3.768082807077258733e-01
 4.022592009080869779e-01
 4.282187211616413913e-01
 4.546491376362873926e-01
 4.810795497428059231e-01
 5.078314966633655780e-01
 5.348747866173392262e-01
 5.619180763331765860e-01
 5.891653417999497266e-01
 6.166039011595976227e-01
 6.440424605498483723e-01
 6.716136226895310646e-01
 6.993245826868276227e-01
 7.270355430982432532e-01
 7.548728431459258426e-01
 7.828631915942324548e-01
 8.108535414258037921e-01
 8.391086634895362772e-01
 8.676670587939759871e-01
 8.962254451396941546e-01
 9.254062334188947192e-01
 9.552246089210690849e-01
 9.850429611037657684e-01
 2.109472376164664986e-01
 2.328881559898200726e-01
 2.548290751834113577e-01
 2.775083310566840433e-01
 3.009750573970715326e-01
 3.244417729578428222e-01
 3.487347109018564817e-01
 3.738385305511019441e-01
 3.989423320215260693e-01
 4.246594232325422436e-01
 4.509520269971530326e-01
 4.772446263262015709e-01
 5.039368567881243877e-01
 5.309984773091105392e-01
 5.580600975919045581e-01
 5.853847064689832180e-01
 6.129595974878332409e-01
 6.405344885369866903e-01
 6.682865594029063772e-01
 6.962229842410484482e-01
 7.241594094868535336e-01
 7.522520818564101264e-01
 7.805277196406065210e-01
 8.088033587826696236e-01
 8.373655650070087608e-01
 8.662528895897118053e-01
 8.951402053967414396e-01
 9.246389137735441244e-01
 9.547642167889615061e-01
 9.848894969381423170e-01
 2.108910252826622922e-01
 2.326772676394571748e-01
 2.544635099930781519e-01
 2.768680509256376543e-01
 2.999320582696993753e-01
 3.229960661153099544e-01
 3.468729847049125681e-01
 3.715973923530395684e-01
 3.963217911852842668e-01
 4.217137355842217050e-01
 4.477782527852376404e-01
 4.738427452699417453e-01
 5.003889247804214069e-01
 5.273969153857472891e-01
 5.544048885877970179e-01
 5.817606042426121116e-01
 6.094382525510551041e-01
 6.371158960604368371e-01
 6.650458452680941823e-01
 6.932121677607010479e-01
 7.213784908858767997e-01
 7.497532550941976570e-01
 7.783391021097111340e-01
 8.069249517419090356e-01
 8.358158454420677730e-01
 8.650289499276034855e-01
 8.942420550592924400e-01
 9.240340669474770285e-01
 9.544092371089158977e-01
 9.847844028676576711e-01
 2.108827315847627004e-01
 2.326523865457562068e-01
 2.544220415035720051e-01
 2.766771723386030057e-01
 2.994589467986047415e-01
 3.222407217730468565e-01
 3.457704558462896816e-01
 3.700827436255034741e-01
 3.943950222520551940e-01
 4.194220661249595805e-01
 4.451689510463188171e-01
 4.709158104699964764e-01
 4.972408748441211057e-01
 5.241242367486148579e-01
 5.510075809809478198e-01
 5.783359041384923405e-01
 6.060833117356447808e-01
 6.338307145401295140e-01
 6.619128312372393186e-01
 6.903136607597384344e-01
 7.187144909055779296e-01
 7.473739766559094333e-01
 7.762947337018070160e-01
 8.052154933075946763e-01
 8.344348337518957548e-01
 8.639699408323585628e-01
 8.935050485456556002e-01
 9.235540589432678082e-01
 9.541212322656946743e-01
 9.846884012392406182e-01
 2.108744378868629976e-01
 2.326275054520527963e-01
 2.543805730140594745e-01
 2.764862937558791312e-01
 2.989858353385845269e-01
 3.214853774491297500e-01
 3.446679266486046833e-01
 3.685680944021997307e-01
 3.924682526467017096e-01
 4.171303952564754391e-01
 4.425596475947732311e-01
 4.679888736165644936e-01
 4.940928241230309048e-01
 5.208515572539565985e-01
 5.476102724377004405e-01
 5.749112041067859780e-01
 6.027283709933528577e-01
 6.305455330936650116e-01
 6.587798171211016740e-01
 6.874151536784509631e-01
 7.160504908500885390e-01
 7.449946978525667785e-01
 7.742503649742640270e-01
 8.035060346008819909e-01
 8.330538220311526354e-01
 8.629109317129801671e-01
 8.927680420147028340e-01
 9.230740509768144975e-01
 9.538332274458808380e-01
 9.845923996188861160e-01
 2.108661441889625177e-01
 2.326026243583468323e-01
 2.543391045245445015e-01
 2.762954151776266243e-01
 2.985127238900731617e-01
 3.207300331442801133e-01
 3.435653970929969936e-01
 3.670534446549402197e-01
 3.905414823301565086e-01
 4.148387229167631030e-01
 4.399503423535350288e-01
 4.650619346151134703e-01
 4.909447726014884439e-01
 5.175788768843913035e-01
 5.442129629387113532e-01
 5.714865041472243501e-01
 5.993734303239066641e-01
 6.272603517207535617e-01
 6.556468029215919424e-01
 6.845166465186298677e-01
 7.133864907211076023e-01
 7.426154186960238768e-01
 7.722059959375271454e-01
 8.017965756307346981e-01
 8.316728102807854350e-01
 8.618519225701971598e-01
 8.920310354669782615e-01
 9.225940430474535159e-01
 9.535452226490324090e-01
 9.844963980064361797e-01
 2.108894763672100325e-01
 2.326592182156647370e-01
 2.544289599901831678e-01
 2.763294424608131461e-01
 2.983823425085154191e-01
 3.204352424701834012e-01
 3.430267161643898999e-01
 3.661919686983097777e-01
 3.893572186911263833e-01
 4.133150236827519142e-01
 4.381003011739975639e-01
 4.628855579621770078e-01
 4.884891626340367443e-01
 5.149282035122215717e-01
 5.413671908570280022e-01
 5.685334341636177902e-01
 5.964165275483509498e-01
 6.242995704198076590e-01
 6.527827924849740615e-01
 6.818347629739810456e-01
 7.108867163329650740e-01
 7.403791857917954022e-01
 7.702777000400977681e-01
 8.001762148201840841e-01
 8.303794398018188305e-01
 8.608693457852147901e-01
 8.913592534544789725e-01
 9.221684898249169482e-01
 9.532964292874068768e-01
 9.844243689001502817e-01
 2.109310156873889786e-01
 2.327838361766245423e-01
 2.546366565924804148e-01
 2.765554207237119200e-01
 2.985618048326942886e-01
 3.205681888552884828e-01
 3.430195456437073465e-01
 3.659510794617614748e-01
 3.888826106856098086e-01
 4.125559066595821389e-01
 4.370059013285341742e-01
 4.614558746620098240e-01
 4.867595674178212817e-01
 5.129341204676565180e-01
 5.391086185824057742e-01
 5.661047808221969513e-01
 5.939121717801861822e-01
 6.217195116395045629e-01
 6.502304174213283661e-01
 6.794133270333148067e-01
 7.085962196031730942e-01
 7.382948513254150580e-01
 7.684746575083463149e-01
 7.986544642139398187e-01
 8.291479796335118335e-01
 8.599371612011409427e-01
 8.907263444226916071e-01
 9.217657615244365665e-01
 9.530547923082753892e-01
 9.843438232408256994e-01
 2.109725550077792278e-01
 2.329084541382128726e-01
 2.548443531958201058e-01
 2.767813989871517055e-01
 2.987412671573109746e-01
 3.207011352407220794e-01
 3.430123751223879136e-01
 3.657101902029821217e-01
 3.884080026345956838e-01
 4.117967892110540040e-01
 4.359115008295555427e-01
 4.600261904507677024e-01
 4.850299706026987012e-01
 5.109400354360124075e-01
 5.368500438770629213e-01
 5.636761266025684947e-01
 5.914078150436612447e-01
 6.191394517907905515e-01
 6.476780426539067159e-01
 6.769918913868805399e-01
 7.063057231649729761e-01
 7.362105168204837735e-01
 7.666716149424179783e-01
 7.971327135781566264e-01
 8.279165193262910671e-01
 8.590049765104750268e-01
 8.900934353175498082e-01
 9.213630332217858099e-01
 9.528131553278134103e-01
 9.842632775810539192e-01
 2.110140943283780601e-01
 2.330330721004237049e-01
 2.550520498001863090e-01
 2.770073772511412180e-01
 2.989207294823676420e-01
 3.208340816264830808e-01
 3.430052046004126720e-01
 3.654693009212735544e-01
 3.879333945366246761e-01
 4.110376713182963826e-01
 4.348170996474274852e-01
 4.585965052862031599e-01
 4.833003721310232259e-01
 5.089459483437822618e-01
 5.345914666486896172e-01
 5.612474714923657571e-01
 5.889034573248366211e-01
 6.165593908579115601e-01
 6.451256681799244497e-01
 6.745704560318503962e-01
 7.040152270155322078e-01
 7.341261822779948654e-01
 7.648685723432199213e-01
 7.956109629135982297e-01
 8.266850588840560787e-01
 8.580727917162340734e-01
 8.894605261411364650e-01
 9.209603049169854394e-01
 9.525715183460614632e-01
 9.841827319208410474e-01
 2.110624747943465329e-01
 2.331775760582948109e-01
 2.552926771547404661e-01
 2.773144445107726952e-01
 2.992510338674287396e-01
 3.211876231949725158e-01
 3.433151202475777652e-01
 3.656567304148018449e-01
 3.879983398901076241e-01
 4.109159341229105533e-01
 4.344455687687425738e-01
 4.579751932851804930e-01
 4.824103550165896870e-01
 5.077906349184981849e-01
 5.331708662663411369e-01
 5.596020117796958182e-01
 5.871072386907386642e-01
 6.146123595676863394e-01
 6.431130013019453751e-01
 6.725927721177096252e-01
 7.020724566371127073e-01
 7.323141773569772361e-01
 7.632605405622475692e-01
 7.942068881658926882e-01
 8.255374269267841125e-01
 8.571901543314436323e-01
 8.888428823979964699e-01
 9.205667385098498245e-01
 9.523411034661996011e-01
 9.841154682841132262e-01
 2.111170417958773415e-01
 2.333412770641226375e-01
 2.555655121664974772e-01
 2.776882964069163906e-01
 2.997177855658309520e-01
 3.217472746958758290e-01
 3.439155537229842130e-01
 3.662458230325699726e-01
 3.885760916498493533e-01
 4.114056987059000470e-01
 4.347706869298769150e-01
 4.581356648875243853e-01
 4.823553297248174832e-01
 5.074692583620066255e-01
 5.325831373629783538e-01
 5.587687981660258707e-01
 5.860494327209113674e-01
 6.133299591164863562e-01
 6.416889073189793180e-01
 6.711098305819698240e-01
 7.005306668595229214e-01
 7.308069139026790451e-01
 7.618810386938792423e-01
 7.929551479810891257e-01
 8.244650124825526616e-01
 8.563485787114463177e-01
 8.882321455928317011e-01
 9.201539733898785878e-01
 9.520934443931492464e-01
 9.840329152593996209e-01
 2.111716087981663215e-01
 2.335049780722071588e-01
 2.558383471819855037e-01
 2.780621483076559097e-01
 3.001845372699623593e-01
 3.223069262036383220e-01
 3.445159871995317480e-01
 3.668349156514791876e-01
 3.891538434107261191e-01
 4.118954633830956280e-01
 4.350958051563857398e-01
 4.582961365236312146e-01
 4.823003043880699781e-01
 5.071478815230479054e-01
 5.319954079030525529e-01
 5.579355835995580826e-01
 5.849916254301610330e-01
 6.120475569119163683e-01
 6.402648128428385377e-01
 6.696268884912305319e-01
 6.989888764570284518e-01
 7.292996506178882621e-01
 7.605015369875737230e-01
 7.917034079500117061e-01
 8.233925979833389697e-01
 8.555070030479331455e-01
 8.876214087558198518e-01
 9.197412082606863937e-01
 9.518457853145824155e-01
 9.839503622328585886e-01
 2.112261758012022594e-01
 2.336686790825158455e-01
 2.561111822011504224e-01
 2.784360002129314116e-01
 3.006512889797494648e-01
 3.228665777181756735e-01
 3.451164206772244225e-01
 3.674240082715302669e-01
 3.897315951727448047e-01
 4.123852281564164834e-01
 4.354209234496356218e-01
 4.584566081942091920e-01
 4.822452790048870619e-01
 5.068265043921551527e-01
 5.314076778674587942e-01
 5.571023680537439127e-01
 5.839338167805846469e-01
 6.107651529020913239e-01
 6.388407178687153243e-01
 6.681439458399085485e-01
 6.974470854232091011e-01
 7.277923875008736054e-01
 7.591220354416763350e-01
 7.904516680710603760e-01
 8.223201834302983348e-01
 8.546654273418236025e-01
 8.870106718876292762e-01
 9.193284431224187925e-01
 9.515981262305742705e-01
 9.838678092045228807e-01
 2.112746587537271681e-01
 2.338211237562186628e-01
 2.563675887057801361e-01
 2.788114492440328385e-01
 3.011529248511539691e-01
 3.234944003333806162e-01
 3.458497567865328470e-01
 3.682306343758482425e-01
 3.906115123798050703e-01
 4.132816096765986047e-01
 4.362664282179150588e-01
 4.592512443565159308e-01
 4.829220690995273957e-01
 5.073172964046682720e-01
 5.317125004462264215e-01
 5.571853076421493522e-01
 5.837777360258750159e-01
 6.103700822427307049e-01
 6.382288864779945836e-01
 6.673730350593299887e-01
 6.965170448715283236e-01
 7.267788692986745236e-01
 7.581186752592700140e-01
 7.894584128122946742e-01
 8.214253938003241995e-01
 8.539290749319214946e-01
 8.864327544698463734e-01
 9.189314602457188119e-01
 9.513635496124857038e-01
 9.837956388459894175e-01
 2.113240494860336993e-01
 2.339692959534838412e-01
 2.566145423684646487e-01
 2.791874677581329123e-01
 3.016882931589230377e-01
 3.241891184365753298e-01
 3.467029660699180171e-01
 3.692414755374270885e-01
 3.917799854136631010e-01
 4.145601458031110131e-01
 4.376074351844390642e-01
 4.606547221797931413e-01
 4.843036034898443032e-01
 5.085924182330784360e-01
 5.328812095751658262e-01
 5.581737563236592869e-01
 5.845120211730333581e-01
 6.108502024530022556e-01
 6.384527668730607397e-01
 6.673385947155265896e-01
 6.962242812777560408e-01
 7.263041230413763705e-01
 7.575382538942596611e-01
 7.887723157843103960e-01
 8.207297369294772604e-01
 8.533199063745814383e-01
 8.859100742338725798e-01
 9.185319318059222971e-01
 9.511238325476317756e-01
 9.837157331573769259e-01
 2.113734402190025341e-01
 2.341174681527306844e-01
 2.568614960344438591e-01
 2.795634862941939192e-01
 3.022236614978982550e-01
 3.248838365801881012e-01
 3.475561753979039548e-01
 3.702523167522392411e-01
 3.929484585095075477e-01
 4.158386818830535070e-01
 4.389484421007950887e-01
 4.620581999491343295e-01
 4.856851381180427030e-01
 5.098675402932332235e-01
 5.340499189285174975e-01
 5.591622059312448823e-01
 5.852463070668759704e-01
 6.113303231943781890e-01
 6.386766475502188012e-01
 6.673041543240701978e-01
 6.959315172377813496e-01
 7.258293766275734082e-01
 7.569578323238975726e-01
 7.880862184953345562e-01
 8.200340800706571454e-01
 8.527107378280101013e-01
 8.853873940073100357e-01
 9.181324033642661586e-01
 9.508841154816758401e-01
 9.836358274684038339e-01
 2.114228309526244298e-01
 2.342656403539345455e-01
 2.571084497036756344e-01
 2.799395048517570039e-01
 3.027590298674289193e-01
 3.255785547633694432e-01
 3.484093847695584611e-01
 3.712631580191625424e-01
 3.941169316660341759e-01
 4.171172179168735616e-01
 4.402894489674640810e-01
 4.634616776650625214e-01
 4.870666729865462119e-01
 5.111426625875249430e-01
 5.352186285086466544e-01
 5.601506564893403706e-01
 5.859805937276356680e-01
 6.118104444816930831e-01
 6.389005285169585546e-01
 6.672697138836486408e-01
 6.956387527389473746e-01
 7.253546300555094861e-01
 7.563774105457993224e-01
 7.874001209422801795e-01
 8.193384232237793663e-01
 8.521015692921106721e-01
 8.848647137901085591e-01
 9.177328749207767089e-01
 9.506443984146153436e-01
 9.835559217790696973e-01
 2.114626826752346866e-01
 2.343959152487266606e-01
 2.573291478903472207e-01
 2.802912901461830364e-01
 3.032822357296158788e-01
 3.262731817943463342e-01
 3.492981348105731465e-01
 3.723602396655391056e-01
 3.954223459231611115e-01
 4.186106567088072050e-01
 4.419354186504097504e-01
 4.652601824742970682e-01
 4.889481493961619907e-01
 5.130223627329215663e-01
 5.370965721196699905e-01
 5.619335289611772088e-01
 5.875713923483381063e-01
 6.132092273975003893e-01
 6.400423968492465754e-01
 6.681135146993556484e-01
 6.961845487549972455e-01
 7.256121643057207304e-01
 7.564055710961296031e-01
 7.871988671495672163e-01
 8.189979410360742618e-01
 8.517320579178059292e-01
 8.844661533588981106e-01
 9.174075964494730062e-01
 9.504481409467521180e-01
 9.834886854756319519e-01
 2.115037330223684398e-01
 2.345190662897652656e-01
 2.575343996248020684e-01
 2.806293128363484546e-01
 3.038037017073162982e-01
 3.269780910519276551e-01
 3.502241278351416742e-01
 3.735449646017771075e-01
 3.968658027394781906e-01
 4.203044822689355753e-01
 4.438712402174918581e-01
 4.674380000073049546e-01
 4.912979714941712039e-01
 5.154741317337478979e-01
 5.396502880695274174e-01