<VTKFile type="UnstructuredGrid" byte_order="BigEndian">
<UnstructuredGrid><Piece NumberOfPoints="2550" NumberOfCells="5000">
<Points>
 <DataArray type="Float32" NumberOfComponents="3" format="ascii">
 4.341931121690538117e-16 -1.350000023841857910e+00 0.000000000000000000e+00
 1.691982299089431763e-01 -1.339347004890441895e+00 0.000000000000000000e+00
 3.357319533824920654e-01 -1.307588219642639160e+00 0.000000000000000000e+00
 4.969735741615295410e-01 -1.255217909812927246e+00 0.000000000000000000e+00
 6.503524780273437500e-01 -1.182989954948425293e+00 0.000000000000000000e+00
 7.935143709182739258e-01 -1.092177987098693848e+00 0.000000000000000000e+00
 9.241474866867065430e-01 -9.841210246086120605e-01 0.000000000000000000e+00
 1.040173292160034180e+00 -8.605083823204040527e-01 0.000000000000000000e+00
 1.139856934547424316e+00 -7.233763933181762695e-01 0.000000000000000000e+00
 1.221514225006103516e+00 -5.748048424720764160e-01 0.000000000000000000e+00
 1.283908128738403320e+00 -4.171686470508575439e-01 0.000000000000000000e+00
 1.326117515563964844e+00 -2.529730796813964844e-01 0.000000000000000000e+00
 1.347321033477783203e+00 -8.477088063955307007e-02 0.000000000000000000e+00
 1.347313880920410156e+00 8.476442098617553711e-02 0.000000000000000000e+00
 1.326109290122985840e+00 2.529667615890502930e-01 0.000000000000000000e+00
 1.283917665481567383e+00 4.171668887138366699e-01 0.000000000000000000e+00
 1.221519827842712402e+00 5.748012065887451172e-01 0.000000000000000000e+00
 1.139851808547973633e+00 7.233669757843017578e-01 0.000000000000000000e+00
 1.040170311927795410e+00 8.605006337165832520e-01 0.000000000000000000e+00
 9.241492152214050293e-01 9.841177463531494141e-01 0.000000000000000000e+00
 7.935191392898559570e-01 1.092178344726562500e+00 0.000000000000000000e+00
 6.503594517707824707e-01 1.182993769645690918e+00 0.000000000000000000e+00
 4.969803988933563232e-01 1.255221247673034668e+00 0.000000000000000000e+00
 3.357341289520263672e-01 1.307576656341552734e+00 0.000000000000000000e+00
 1.691972613334655762e-01 1.339319944381713867e+00 0.000000000000000000e+00
 0.000000000000000000e+00 1.350000023841857910e+00 0.000000000000000000e+00
 -1.691998690366744995e-01 1.339354872703552246e+00 0.000000000000000000e+00
 -3.357313573360443115e-01 1.307587265968322754e+00 0.000000000000000000e+00
 -4.969681501388549805e-01 1.255198240280151367e+00 0.000000000000000000e+00
 -6.503674387931823730e-01 1.183014035224914551e+00 0.000000000000000000e+00
 -7.935100793838500977e-01 1.092172980308532715e+00 0.000000000000000000e+00
 -9.241386055946350098e-01 9.841076731681823730e-01 0.000000000000000000e+00
 -1.040192842483520508e+00 8.605223894119262695e-01 0.000000000000000000e+00
 -1.139842748641967773e+00 7.233662009239196777e-01 0.000000000000000000e+00
 -1.221516489982604980e+00 5.748020410537719727e-01 0.000000000000000000e+00
 -1.283926248550415039e+00 4.171729385852813721e-01 0.000000000000000000e+00
 -1.326087832450866699e+00 2.529647648334503174e-01 0.000000000000000000e+00
 -1.347336053848266602e+00 8.476720005273818970e-02 0.000000000000000000e+00
 -1.347336053848266602e+00 -8.476720005273818970e-02 0.000000000000000000e+00
 -1.326087832450866699e+00 -2.529647648334503174e-01 0.000000000000000000e+00
 -1.283926248550415039e+00 -4.171729385852813721e-01 0.000000000000000000e+00
 -1.221516489982604980e+00 -5.748020410537719727e-01 0.000000000000000000e+00
 -1.139842748641967773e+00 -7.233662009239196777e-01 0.000000000000000000e+00
 -1.040192842483520508e+00 -8.605223894119262695e-01 0.000000000000000000e+00
 -9.241386055946350098e-01 -9.841076731681823730e-01 0.000000000000000000e+00
 -7.935100793838500977e-01 -1.092172980308532715e+00 0.000000000000000000e+00
 -6.503674387931823730e-01 -1.183014035224914551e+00 0.000000000000000000e+00
 -4.969681501388549805e-01 -1.255198240280151367e+00 0.000000000000000000e+00
 -3.357313573360443115e-01 -1.307587265968322754e+00 0.000000000000000000e+00
 -1.691998690366744995e-01 -1.339354872703552246e+00 0.000000000000000000e+00
 0.000000000000000000e+00 4.500000178813934326e-02 0.000000000000000000e+00
 5.642550997436046600e-03 4.469366744160652161e-02 0.000000000000000000e+00
 1.119090802967548370e-02 4.361946880817413330e-02 0.000000000000000000e+00
 1.655451767146587372e-02 4.183774814009666443e-02 0.000000000000000000e+00
 2.165718749165534973e-02 3.940700739622116089e-02 0.000000000000000000e+00
 2.643005549907684326e-02 3.637936338782310486e-02 0.000000000000000000e+00
 3.080474585294723511e-02 3.280049562454223633e-02 0.000000000000000000e+00
 3.470784798264503479e-02 2.871276997029781342e-02 0.000000000000000000e+00
 3.805748000741004944e-02 2.416091598570346832e-02 0.000000000000000000e+00
 4.076729342341423035e-02 1.920179277658462524e-02 0.000000000000000000e+00
 4.279650002717971802e-02 1.392704527825117111e-02 0.000000000000000000e+00
 4.414448887109756470e-02 8.438196033239364624e-03 0.000000000000000000e+00
 4.481643065810203552e-02 2.826116513460874557e-03 0.000000000000000000e+00
 4.481643065810203552e-02 -2.826116513460874557e-03 0.000000000000000000e+00
 4.414448887109756470e-02 -8.438196033239364624e-03 0.000000000000000000e+00
 4.279650002717971802e-02 -1.392704527825117111e-02 0.000000000000000000e+00
 4.076729342341423035e-02 -1.920179277658462524e-02 0.000000000000000000e+00
 3.805748000741004944e-02 -2.416091598570346832e-02 0.000000000000000000e+00
 3.470784798264503479e-02 -2.871276997029781342e-02 0.000000000000000000e+00
 3.080474585294723511e-02 -3.280049562454223633e-02 0.000000000000000000e+00
 2.643005549907684326e-02 -3.637936338782310486e-02 0.000000000000000000e+00
 2.165718749165534973e-02 -3.940700739622116089e-02 0.000000000000000000e+00
 1.655451767146587372e-02 -4.183774814009666443e-02 0.000000000000000000e+00
 1.119090802967548370e-02 -4.361946880817413330e-02 0.000000000000000000e+00
 5.642550997436046600e-03 -4.469366744160652161e-02 0.000000000000000000e+00
 1.447310307722397035e-17 -4.500000178813934326e-02 0.000000000000000000e+00
 -5.639995448291301727e-03 -4.464516043663024902e-02 0.000000000000000000e+00
 -1.119104493409395218e-02 -4.358624294400215149e-02 0.000000000000000000e+00
 -1.656560413539409637e-02 -4.183994233608245850e-02 0.000000000000000000e+00
 -2.167891524732112885e-02 -3.943379968404769897e-02 0.000000000000000000e+00
 -2.645033597946166992e-02 -3.640576452016830444e-02 0.000000000000000000e+00
 -3.080461919307708740e-02 -3.280358761548995972e-02 0.000000000000000000e+00
 -3.467309474945068359e-02 -2.868407964706420898e-02 0.000000000000000000e+00
 -3.799475729465484619e-02 -2.411220595240592957e-02 0.000000000000000000e+00
 -4.071721807122230530e-02 -1.916006766259670258e-02 0.000000000000000000e+00
 -4.279754310846328735e-02 -1.390576455742120743e-02 0.000000000000000000e+00
 -4.420292750000953674e-02 -8.432159200310707092e-03 0.000000000000000000e+00
 -4.491120204329490662e-02 -2.825573319569230080e-03 0.000000000000000000e+00
 -4.491120204329490662e-02 2.825573319569230080e-03 0.000000000000000000e+00
 -4.420292750000953674e-02 8.432159200310707092e-03 0.000000000000000000e+00
 -4.279754310846328735e-02 1.390576455742120743e-02 0.000000000000000000e+00
 -4.071721807122230530e-02 1.916006766259670258e-02 0.000000000000000000e+00
 -3.799475729465484619e-02 2.411220595240592957e-02 0.000000000000000000e+00
 -3.467309474945068359e-02 2.868407964706420898e-02 0.000000000000000000e+00
 -3.080461919307708740e-02 3.280358761548995972e-02 0.000000000000000000e+00
 -2.645033597946166992e-02 3.640576452016830444e-02 0.000000000000000000e+00
 -2.167891524732112885e-02 3.943379968404769897e-02 0.000000000000000000e+00
 -1.656560413539409637e-02 4.183994233608245850e-02 0.000000000000000000e+00
 -1.119104493409395218e-02 4.358624294400215149e-02 0.000000000000000000e+00
 -5.639995448291301727e-03 4.464516043663024902e-02 0.000000000000000000e+00
 -6.893327925354242325e-03 5.456630885601043701e-02 0.000000000000000000e+00
 0.000000000000000000e+00 5.499999970197677612e-02 0.000000000000000000e+00
 -8.150108158588409424e-03 6.451474875211715698e-02 0.000000000000000000e+00
 0.000000000000000000e+00 6.502751260995864868e-02 0.000000000000000000e+00
 -9.413794614374637604e-03 7.451786100864410400e-02 0.000000000000000000e+00
 0.000000000000000000e+00 7.511012256145477295e-02 0.000000000000000000e+00
 -1.068786345422267914e-02 8.460315316915512085e-02 0.000000000000000000e+00
 0.000000000000000000e+00 8.527557551860809326e-02 0.000000000000000000e+00
 -1.197582017630338669e-02 9.479837864637374878e-02 0.000000000000000000e+00
 0.000000000000000000e+00 9.555183351039886475e-02 0.000000000000000000e+00
 -1.328120753169059753e-02 1.051315888762474060e-01 0.000000000000000000e+00
 0.000000000000000000e+00 1.059671714901924133e-01 0.000000000000000000e+00
 -1.460761763155460358e-02 1.156312003731727600e-01 0.000000000000000000e+00
 0.000000000000000000e+00 1.165502369403839111e-01 0.000000000000000000e+00
 -1.595870032906532288e-02 1.263261139392852783e-01 0.000000000000000000e+00
 0.000000000000000000e+00 1.273301541805267334e-01 0.000000000000000000e+00
 -1.733817160129547119e-02 1.372457593679428101e-01 0.000000000000000000e+00
 0.000000000000000000e+00 1.383365839719772339e-01 0.000000000000000000e+00
 -1.874982565641403198e-02 1.484201550483703613e-01 0.000000000000000000e+00
 0.000000000000000000e+00 1.495997905731201172e-01 0.000000000000000000e+00
 -2.019754797220230103e-02 1.598800569772720337e-01 0.000000000000000000e+00
 0.000000000000000000e+00 1.611507833003997803e-01 0.000000000000000000e+00
 -2.168532274663448334e-02 1.716569960117340088e-01 0.000000000000000000e+00
 0.000000000000000000e+00 1.730213314294815063e-01 0.000000000000000000e+00
 -2.321724034845829010e-02 1.837833821773529053e-01 0.000000000000000000e+00
 0.000000000000000000e+00 1.852440834045410156e-01 0.000000000000000000e+00
 -2.479751594364643097e-02 1.962925493717193604e-01 0.000000000000000000e+00
[...]
<CellData>
 <DataArray Name="pos.x" type="Float32" NumberOfComponents="1" format="ascii">
 -4.177774452143475856e-03
 -2.297775948678911634e-03
 -5.014478733990677430e-03
 -2.716702785311766229e-03
 -5.854634352304867624e-03
 -3.137931566993102262e-03
 -6.700552747468858754e-03
 -3.562621180475756492e-03
 -7.554561214446256327e-03
 -3.991940033970500269e-03
 -8.419009305647123798e-03
 -4.427069271676623528e-03
 -9.296275295028440591e-03
 -4.869206023351817063e-03
 -1.018877272121343665e-02
 -5.319566697861620452e-03
 -1.109895702763125103e-02
 -5.779390329769630574e-03
 -1.202933231794529358e-02
 -6.249941988175663869e-03
 -1.298245824535590974e-02
 -6.732516257180246738e-03
 -1.396095705473119307e-02
 -7.228440797550947199e-03
 -1.496752079694032254e-02
 -7.739079999389376213e-03
 -1.600491873523750622e-02
 -8.265838735848130003e-03
 -1.707600496407305629e-02
 -8.810166228224926288e-03
 -1.818372626129245717e-02
 -9.373560033067529149e-03
 -1.933113019532646179e-02
 -9.957570162258929172e-03
 -2.052137350967676507e-02
 -1.056380334741783417e-02
 -2.175773080776468096e-02
 -1.119392746034684506e-02
 -2.304360356203661100e-02
 -1.184967610168976594e-02
 -2.438252947211224167e-02
 -1.253285337042247399e-02
 -2.577819219772159096e-02
 -1.324533882729911523e-02
 -2.723443149320832132e-02
 -1.398909266590920436e-02
 -2.875525377148124839e-02
 -1.476616110557204403e-02
 -3.034484312647779333e-02
 -1.557868202090574583e-02
 -3.200757284446437839e-02
 -1.642889082355863256e-02
 -3.374801743584370656e-02
 -1.731912661228507400e-02
 -3.557096522057087706e-02
 -1.825183860828579960e-02
 -3.748143150180344163e-02
 -1.922959289351764203e-02
 -3.948467236402883329e-02
 -2.025507947051119126e-02
 -4.158619913363054837e-02
 -2.133111966311936059e-02
 -4.379179354167714311e-02
 -2.246067387855778252e-02
 -4.610752363064995335e-02
 -2.364684975209216736e-02
 -4.853976044887223923e-02
 -2.489291069678007881e-02
 -5.109519557856955635e-02
 -2.620228488178947754e-02
 -5.378085954578454286e-02
 -2.757857466399507226e-02
 -5.660414116279578051e-02
 -2.902556649880071171e-02
 -5.957280785625538450e-02
 -3.054724135745466931e-02
 -6.269502703697246715e-02
 -3.214778567951779437e-02
 -6.597938857013509184e-02
 -3.383160289061729747e-02
 -6.943492840779076636e-02
 -3.560332551717346888e-02
 -7.307115344860330708e-02
 -3.746782793142983126e-02
 -7.689806769328055847e-02
 -3.943023976185073415e-02
 -8.092619976763176792e-02
 -4.149596000578103377e-02
 -8.516663188897595493e-02
 -4.367067188319493504e-02
 -8.963103035559434606e-02
 -4.596035847239940408e-02
 -9.433167764310886050e-02
 -4.837131917070947029e-02
 -9.928150619609170391e-02
 -5.091018702538222668e-02
 -1.044941340078716641e-01
 -5.358394698248943738e-02
 -1.099839020864263328e-01
 -5.639995510393689543e-02
 -1.016966140895972891e-02
 -8.737089050165815912e-03
 -1.224765209152083728e-02
 -1.040504027881026389e-02
 -1.433364040879661801e-02
 -1.208101043097013251e-02
 -1.643336534238704419e-02
 -1.376961044419753623e-02
 -1.855260366614033471e-02
 -1.547548600338215750e-02
 -2.069718583924231095e-02
 -1.720333032198303677e-02
 -2.287301204700522075e-02
 -1.895789705402112571e-02
 -2.508606843348734974e-02
 -2.074401337235628334e-02
 -2.734244357060282640e-02
 -2.256659324922961549e-02
 -2.964834520903142021e-02
 -2.443065097560872048e-02
 -3.201011735701358302e-02
 -2.634131495653040458e-02
 -3.443425773401802975e-02
 -2.830384182039447430e-02
 -3.692743564730031208e-02
 -3.032363088102640533e-02
 -3.949651034053468235e-02
 -3.240623899229672783e-02
 -4.214854986499989159e-02
 -3.455739583616559973e-02
 -4.489085052523770353e-02
 -3.678301968621269097e-02
 -4.773095695268272237e-02
 -3.908923369002140907e-02
 -5.067668286249052412e-02
 -4.148238271521340753e-02
 -5.373613255067036243e-02
 -4.396905080548055983e-02
 -5.691772319066521618e-02
 -4.655607929463909805e-02
 -6.023020799072192899e-02
 -4.925058562854191940e-02
 -6.368270027576199144e-02
 -5.205998294663142373e-02
 -6.728469856000707239e-02
 -5.499200047700644051e-02
 -7.104611267933945429e-02
 -5.805470480111338261e-02
 -7.497729105529245264e-02
 -6.125652204656606425e-02
 -7.908904916568010313e-02
 -6.460626106915046130e-02
 -8.339269930019438393e-02
 -6.811313768779336808e-02
 -8.790008168283376666e-02
 -7.178680003916991514e-02
 -9.262359704678735373e-02
 -7.563735512170598196e-02
 -9.757624075139463560e-02
 -7.967539660200330387e-02
 -1.027716385350437439e-01
 -8.391203396018864780e-02
 -1.082240840023719758e-01
 -8.835892305437165195e-02
 -1.139485779489027850e-01
 -9.302829818830045394e-02
 -1.199608696313105294e-01
 -9.793300577044010413e-02
 -1.262775000968548167e-01
 -1.030865396570764120e-01
 -1.329158476911933284e-01
 -1.085030782766815277e-01
 -1.398941758697744009e-01
 -1.141975236376781416e-01
 -1.472316834443478661e-01
 -1.201855423269201778e-01
 -1.549485574028327539e-01
 -1.264836086116857272e-01
 -1.630660284478606947e-01
 -1.331090497637647252e-01
 -1.716064294067922713e-01
 -1.400800937303361138e-01
 -1.805932566739042733e-01
 -1.474159192827887987e-01
 -1.900512348537889140e-01
 -1.551367087814541634e-01
 -2.000063847838102760e-01
 -1.632637037014177117e-01
 -2.104860951227639221e-01
 -1.718192630721729619e-01
 -2.215191977026935710e-01
 -1.808269249918960098e-01
 -2.331360468511725070e-01
 -1.903114713855803275e-01
 -2.453686029022834614e-01
 -2.002989961851942835e-01
 -2.582505201260514305e-01
 -2.108169771194382813e-01
 -2.718172393182407554e-01
 -2.218943513106109988e-01
 -1.600116673029542205e-02
 -1.503861303804759388e-02
 -1.928767265917498766e-02
 -1.792928407144214753e-02
 -2.258659639353990597e-02
 -2.083356454360495158e-02
 -2.590701394903917321e-02
 -2.375944472564774437e-02
 -2.925806047523114503e-02
 -2.671497431391324159e-02
 -3.264895538825313137e-02
 -2.970828457634037620e-02
 -3.608902773532563640e-02
 -3.274761072324976902e-02
 -3.958774186087427732e-02
 -3.584131456409595656e-02
 -4.315472344488192197e-02
 -3.899790751251986515e-02
 -4.679978598510817905e-02
 -4.222607400299294850e-02
 -5.053295779603392962e-02
 -4.553469538347726386e-02
 -5.436450959881089506e-02
 -4.893287434983484285e-02
 -5.830498277812157237e-02
 -5.242995998921059358e-02
 -6.236521838368998955e-02
 -5.603557350128798159e-02
 -6.655638695623243561e-02
 -5.975963466818231401e-02
 -7.089001925990569275e-02
 -6.361238914579540882e-02
 -7.537803800580357427e-02
 -6.760443665171590732e-02
 -8.003279065377985613e-02
 -7.174676012721580010e-02
 -8.486708338284236486e-02
 -7.605075595357403684e-02
 -8.989421632357730285e-02
 -8.052826530585827092e-02
 -9.512802014953569696e-02
 -8.519160673042547316e-02
 -1.005828941282524425e-01
 -9.005361003576899115e-02
 -1.062738457365838690e-01
 -9.512765158995252490e-02
 -1.122165319493539509e-01
 -1.004276911217415053e-01
 -1.184273023149024634e-01
 -1.059683101266794686e-01
 -1.249232439360451336e-01
 -1.117647519837721565e-01
 -1.317222284801971288e-01
 -1.178329638931489703e-01
 -1.388429613479948144e-01
 -1.241896407500806127e-01
 -1.463050331356885447e-01
 -1.308522710760591512e-01
 -1.541289735328900679e-01
 -1.378391851333069240e-01
 -1.623363078039582741e-01
 -1.451696053550864118e-01
 -1.709496160084152949e-01
 -1.528636992305559550e-01
 -1.799925951233204424e-01
 -1.609426347896676102e-01
 -1.894901242385131079e-01
 -1.694286388407583444e-01
 -1.994683330040905311e-01
 -1.783450581210574148e-01
 -2.099546735184332213e-01
 -1.877164235283475258e-01
 -2.209779958545567691e-01
 -1.975685176104954310e-01
 -2.325686274325785285e-01
 -2.079284454985272090e-01
 -2.447584564566688548e-01
 -2.188247094784020463e-01
 -2.575810196460397994e-01
 -2.302872874066455022e-01
 -2.710715945013366657e-01
 -2.423477151855794320e-01
 -2.852672963602754241e-01
 -2.550391735250565062e-01
 -3.002071805095483659e-01
 -2.683965792293963037e-01
 -3.159323496339250803e-01
 -2.824566812606738586e-01
 -3.324860668981675094e-01
 -2.972581618426501371e-01
 -3.499138749728669118e-01
 -3.128417428835013059e-01
 -3.682637213316692915e-01
 -3.292502980101381094e-01
 -3.875860901646077106e-01
 -3.465289705223453254e-01
 -4.079341412704605152e-01
 -3.647252975912558259e-01
 -4.293638563102583627e-01
 -3.838893410438563580e-01
 -2.158032409366067786e-02
 -2.110296911468738032e-02
 -2.602351510709679031e-02
 -2.517077234383223103e-02
 -3.048334826057838912e-02
 -2.925756089801890766e-02
 -3.497209346961497461e-02
 -3.337457837057018761e-02
 -3.950210019270943007e-02
 -3.753315152076180938e-02
 -4.408583140725062105e-02
 -4.174472143605983954e-02
 -4.873589789771978764e-02
 -4.602087500889834315e-02
 -5.346509295054452382e-02
 -5.037337681459633232e-02
 -5.828642755105303136e-02
 -5.481420147811694177e-02
 -6.321316617936274806e-02
 -5.935556661871604911e-02
 -6.825886330368503840e-02
 -6.400996646311814253e-02
 -7.343740067144666206e-02
 -6.879020621969607341e-02
 -7.876302550082342480e-02
 -7.370943730822500373e-02
 -8.425038967775888565e-02
 -7.878119354213486414e-02
 -8.991459006630682371e-02
 -8.401942836280641702e-02
 -9.577121004320017505e-02
 -8.943855322834959320e-02
 -1.018363623709156451e-01
 -9.505347726247992401e-02
 -1.081267335271873797e-01
 -1.008796482725749649e-01
 -1.146596296129287346e-01
 -1.069330952497601767e-01
 -1.214530239648647231e-01
 -1.132304724679501495e-01
 -1.285256066038666101e-01
 -1.197891053031711756e-01
 -1.358968356550318834e-01
 -1.266270378992233880e-01
 -1.435869908809765672e-01
 -1.337630828108204994e-01
 -1.516172294756203132e-01
 -1.412168727607850949e-01
 -1.600096442719652623e-01
 -1.490089146536950626e-01
 -1.687873245240100462e-01
 -1.571606459945831258e-01
 -1.779744194300220128e-01
 -1.656944938679089652e-01
 -1.875962045719331839e-01
 -1.746339366390672054e-01
 -1.976791514536495598e-01
 -1.840035685481851147e-01
 -2.082510003295859891e-01
 -1.938291673739203358e-01
 -2.193408365237946578e-01
 -2.041377653534157399e-01
 -2.309791704496553244e-01
 -2.149577235535267139e-01
 -2.431980215502788090e-01
 -2.263188098979318774e-01
 -2.560310063905609224e-01
 -2.382522810647949851e-01
 -2.695134311432453855e-01
 -2.507909684802956396e-01
 -2.836823887234448116e-01
 -2.639693686446155652e-01
 -2.985768608388566503e-01
 -2.778237380388835498e-01
 -3.142378252364336211e-01
 -2.923921928741899379e-01
 -3.307083684405685564e-01
 -3.077148139570987095e-01
 -3.480338042929582709e-01
 -3.238337569601661414e-01
 -3.662617986202735820e-01
 -3.407933684008384589e-01
 -3.854425003726224541e-01
 -3.586403076478166252e-01
 -4.056286795935952760e-01
 -3.774236752905459902e-01
 -4.268758726014754146e-01
 -3.971951482250065113e-01
 -4.492425347810380387e-01
 -4.180091218274502585e-01
 -4.727902014063012914e-01
 -4.399228596072353170e-01
 -4.975836569366820505e-01
 -4.629966507504816309e-01
 -5.236911132523286438e-01
 -4.872939759879859056e-01
 -5.511843973189903823e-01
 -5.128816822437274325e-01
 -5.801391487987279660e-01
 -5.398301665444636965e-01
 -2.681914685460816752e-02
 -2.683451876208585093e-02
 -3.234895117608527909e-02
 -3.201530250006951600e-02
 -3.789935951567796613e-02
 -3.722014803945139505e-02
 -4.348564218485895250e-02
 -4.246337497758200658e-02
 -4.912316819273784135e-02
 -4.775940850691004491e-02
 -5.482744752935662241e-02
 -5.312281910164481230e-02
 -6.061417383685267085e-02
 -5.856836260411842771e-02
 -6.649926758588627085e-02
 -6.411102082113380451e-02
 -7.249891987611992161e-02
 -6.976604274198731914e-02
 -7.862963698125367829e-02
 -7.554898649156517598e-02
 -8.490828576116858650e-02
 -8.147576213393516176e-02
 -9.135214006611695747e-02
 -8.756267544419533977e-02
 -9.797892826062649940e-02
 -9.382647276900517308e-02
 -1.048068819978662664e-01
 -1.002843870992184278e-01
 -1.118547863786629737e-01
 -1.069541854813754189e-01
 -1.191420316331655987e-01
 -1.138542178984907616e-01
 -1.266886664673441965e-01
 -1.210034677546196757e-01
 -1.345154532210914022e-01
 -1.284216041020948273e-01
 -1.426439249896765404e-01
 -1.361290357551228347e-01
 -1.510964448657064196e-01
 -1.441469674386168520e-01
 -1.598962674645786342e-01
 -1.524974581267429519e-01
 -1.690676029026968452e-01
 -1.612034817316812252e-01
 -1.786356834044655617e-01
 -1.702889903095693713e-01
 -1.886268327213134199e-01
 -1.797789799575203740e-01
 -1.990685385537308560e-01
 -1.896995595830109627e-01
 -2.099895281755710663e-01
 -2.000780227348403495e-01
 -2.214198474686706053e-01
 -2.109429226932791890e-01
 -2.333909435852315195e-01
 -2.223241510259985898e-01
 -2.459357514653853494e-01
 -2.342530198259022978e-01
 -2.590887844479667912e-01
 -2.467623478571149553e-01
 -2.728862292237862475e-01
 -2.598865508461316587e-01
 -2.873660453926359382e-01
 -2.736617361665385495e-01
 -3.025680698979331673e-01
 -2.881258021778019818e-01
 -3.185341266263199689e-01
 -3.033185424914258133e-01
 -3.353081414737514865e-01
 -3.192817554513369682e-01
 -3.529362631946429407e-01
 -3.360593591297005855e-01
 -3.714669903665566153e-01
 -3.536975121545419820e-01
 -3.909513048197322260e-01
 -3.722447407015970211e-01
 -4.114428118985570815e-01
 -3.917520719997722445e-01
 -4.329978879408595271e-01
 -4.122731747175152894e-01
 -4.556758353807755513e-01
 -4.338645066163259734e-01
 -4.795390459019041596e-01
 -4.565854698776356524e-01
 -5.046531720896233475e-01
 -4.804985745303887446e-01
 -5.310873080548145220e-01
 -5.056696104289503113e-01
 -5.589141795259293666e-01
 -5.321678282544858307e-01
 -5.882103439323818073e-01
 -5.600661300377850482e-01
 -6.190564010297343600e-01
 -5.894412697276973923e-01
 -6.515372146461529956e-01
 -6.203740643569847224e-01
 -6.857421461602006829e-01
 -6.529496163865492475e-01
 -7.217653003523124555e-01
 -6.872575478397542348e-01
 -3.163501564867672589e-02
 -3.214287201844173020e-02
 -3.816422496070015491e-02
 -3.835493221086602733e-02
 -4.471767523123532789e-02
 -4.459575121206302978e-02
 -5.131339634578421099e-02
 -5.088249879480669785e-02
 -5.796953448560848710e-02
 -5.723247109081658346e-02
 -6.470440205159508351e-02
 -6.366313817596291891e-02
 -7.153652804542608157e-02
 -7.019219213402763669e-02
 -7.848470904666166037e-02
 -7.683759573125453768e-02
 -8.556806092598494284e-02
 -8.361763183560276536e-02
 -9.280607143688189564e-02
 -9.055095371666538329e-02
 -1.002186538304471880e-01
 -9.765663636463889352e-02
 -1.078262016408212953e-01
 -1.049542289695328118e-01
 -1.156496447919847653e-01
 -1.124638087050000568e-01
 -1.237105071802707262e-01
 -1.202060359647582621e-01
 -1.320309658910170658e-01
 -1.282022112035696437e-01
 -1.406339122122761687e-01
 -1.364743335391596923e-01
 -1.495430146134417715e-01
 -1.450451612763010989e-01
 -1.587827838620619880e-01
 -1.539382745195768398e-01
 -1.683786404579866725e-01
 -1.631781400470829202e-01
 -1.783569845703748824e-01
 -1.727901786235520876e-01
 -1.887452686699739868e-01
 -1.828008349380900732e-01
 -1.995720730564957413e-01
 -1.932376503589381400e-01
 -2.108671844888813374e-01
 -2.041293387054243791e-01
 -2.226616781347833252e-01
 -2.155058652455685009e-01
 -2.349880030647233664e-01
 -2.273985291366787675e-01
 -2.478800715261395560e-01
 -2.398400495357517481e-01
 -2.613733522429327327e-01
 -2.528646556165823345e-01
 -2.755049679971990351e-01
 -2.665081807412396642e-01
 -2.903137977616153109e-01
 -2.808081610449938981e-01
 -3.058405836634654484e-01
 -2.958039387059213654e-01
 -3.221280430745869783e-01
 -3.115367701833037239e-01
 -3.392209861356201284e-01
 -3.280499397226070424e-01
 -3.571664390378932463e-01
 -3.453888784393168154e-01
 -3.760137734021181122e-01
 -3.636012893092523957e-01
 -3.958148421098418024e-01
 -3.827372784092350488e-01
 -4.166241219613575075e-01
 -4.028494927691799177e-01
 -4.384988635525520206e-01
 -4.239932652148710179e-01
 -4.614992487830344992e-01
 -4.462267665999104516e-01
 -4.856885564288830892e-01
 -4.696111658456649240e-01
 -5.111333362355329202e-01
 -4.942107982295123603e-01
 -5.379035920097731127e-01
 -5.200933423843805414e-01
 -5.660729742145721444e-01
 -5.473300064965452849e-01
 -5.957189825966056063e-01
 -5.759957242139520650e-01
 -6.269231794039494821e-01
 -6.061693608040464865e-01
 -6.597714137805495982e-01
 -6.379339301282968000e-01
 -6.943540579548214131e-01
 -6.713768230303497342e-01
 -7.307662558721791379e-01
 -7.065900477661603007e-01
 -7.691081849555413408e-01
 -7.436704831375711144e-01
 -8.094853317139628635e-01
 -7.827201450257609272e-01
 -8.520087819576497301e-01
 -8.238464670578529159e-01
 -3.595198134812330887e-02
 -3.694431298184576440e-02
 -4.337762611948187824e-02
 -4.408968172857127138e-02
 -5.083076649535176600e-02
 -5.126805274784995703e-02
 -5.833190759319929058e-02
 -5.849917521030584266e-02
 -6.590168659031975240e-02
 -6.580294341659990998e-02
 -7.356092950094367255e-02
 -7.319945153073074973e-02
 -8.133070847287261762e-02
 -8.070904886320011407e-02
 -8.923239976127859963e-02
 -8.835239585613859081e-02
 -9.728774253916523673e-02
 -9.615052092441871145e-02
 -1.055188987062906647e-01
 -1.041248783091359847e-01
 -1.139485138610977222e-01
 -1.122974071026254239e-01
 -1.225997796033992393e-01
 -1.206905916074034052e-01
 -1.314964973392244163e-01
 -1.293275231950942739e-01
 -1.406631437633674431e-01
 -1.382319638355286040e-01
 -1.501249381997938337e-01
 -1.474284114707947735e-01
 -1.599079119851720965e-01
 -1.569421674141009415e-01
 -1.700389800864185730e-01
 -1.667994059588758793e-01
 -1.805460151492905008e-01
 -1.770272463896173099e-01
 -1.914579241817500332e-01
 -1.876538275926045996e-01
 -2.028047280830704013e-01
 -1.987083854717444920e-01
 -2.146176442374856386e-01
 -2.102213333825379837e-01
 -2.269291723996159915e-01
 -2.222243458054576903e-01
 -2.397731841079573101e-01
 -2.347504454889385583e-01
 -2.531850158724284761e-01
 -2.478340943017302012e-01
 -2.672015663923563156e-01
 -2.615112880445643051e-01
 -2.818613980723636558e-01
 -2.758196554819834501e-01
 -2.972048431154514780e-01
 -2.907985618667885963e-01
 -3.132741144851602377e-01
 -3.064892172419211858e-01
 -3.301134220420879894e-01
 -3.229347898177415410e-01
 -3.477690941742823116e-01
 -3.401805247366276319e-01
 -3.662897052561359668e-01
 -3.582738685516393962e-01
 -3.857262092864508496e-01
 -3.772645997617147806e-01
 -4.061320800733370651e-01
 -3.972049657625286723e-01
 -4.275634583516242926e-01
 -4.181498265897902189e-01
 -4.500793062375343379e-01
 -4.401568058504516934e-01
 -4.737415694455544557e-01
 -4.632864492570670234e-01
 -4.986153477137995060e-01
 -4.876023912014619266e-01
 -5.247690739067399912e-01
 -5.131715298259936775e-01
 -5.522747022880453160e-01
 -5.400642110740588864e-01
 -5.812079064815172114e-01
 -5.683544222262093548e-01
 -6.116482876647459932e-01
 -5.981199954543303665e-01
 -6.436795935682725345e-01
 -6.294428219539069946e-01
 -6.773899488827686000e-01
 -6.624090772434939600e-01
 -7.128720977081295374e-01
 -6.971094582512384896e-01
 -7.502236587115124200e-01
 -7.336394328407265242e-01
 -7.895473936963046668e-01
 -7.720995024626522429e-01
 -8.309514903209181957e-01
 -8.125954786549162145e-01
 -8.745498597452211476e-01
 -8.552387741518648889e-01
 -9.204624500234975804e-01
 -9.001467094035658922e-01
 -9.688155761061391091e-01
 -9.474428353484251053e-01
 -3.970196282503733742e-02
 -4.116312006006325047e-02
 -4.790693620182154278e-02
 -4.912911062751772889e-02
 -5.614222620700843464e-02
 -5.713182646575309248e-02
 -6.443048981207706583e-02
 -6.519328468702506596e-02
 -7.279452972974230496e-02
 -7.333566401593043238e-02
 -8.125735714889309458e-02
 -8.158136580762616330e-02
 -8.984225504309173438e-02
 -8.995307567855109765e-02
 -9.857284222680834374e-02
 -9.847382591920834927e-02
 -1.074731383356225534e-01
 -1.071670588607194635e-01
 -1.165676299091664703e-01
 -1.160566913694841967e-01
 -1.258813377586159854e-01
 -1.251671806473841908e-01
 -1.354398858040731235e-01
 -1.345235915185604703e-01
 -1.452695715712244984e-01
 -1.441516653878842646e-01
 -1.553974385412267567e-01
 -1.540778910608400498e-01
 -1.658513505528687315e-01
 -1.643295776196613545e-01
 -1.766600684617054828e-01
 -1.749349295562153406e-01
 -1.878533292670694355e-01
 -1.859231243683438228e-01
 -1.994619279246531429e-01
 -1.973243928331425145e-01
 -2.115178020697471573e-01