<VTKFile type="UnstructuredGrid" byte_order="BigEndian">
<UnstructuredGrid><Piece NumberOfPoints="2550" NumberOfCells="5000">
<Points>
 <DataArray type="Float32" NumberOfComponents="3" format="ascii">
 4.341931121690538117e-16 -1.350000023841857910e+00 0.000000000000000000e+00
 1.691982299089431763e-01 -1.339347004890441895e+00 0.000000000000000000e+00
 3.357319533824920654e-01 -1.307588219642639160e+00 0.000000000000000000e+00
 4.969735741615295410e-01 -1.255217909812927246e+00 0.000000000000000000e+00
 6.503524780273437500e-01 -1.182989954948425293e+00 0.000000000000000000e+00
 7.935143709182739258e-01 -1.092177987098693848e+00 0.000000000000000000e+00
 9.241474866867065430e-01 -9.841210246086120605e-01 0.000000000000000000e+00
 1.040173292160034180e+00 -8.605083823204040527e-01 0.000000000000000000e+00
 1.139856934547424316e+00 -7.233763933181762695e-01 0.000000000000000000e+00
 1.221514225006103516e+00 -5.748048424720764160e-01 0.000000000000000000e+00
 1.283908128738403320e+00 -4.171686470508575439e-01 0.000000000000000000e+00
 1.326117515563964844e+00 -2.529730796813964844e-01 0.000000000000000000e+00
 1.347321033477783203e+00 -8.477088063955307007e-02 0.000000000000000000e+00
 1.347313880920410156e+00 8.476442098617553711e-02 0.000000000000000000e+00
 1.326109290122985840e+00 2.529667615890502930e-01 0.000000000000000000e+00
 1.283917665481567383e+00 4.171668887138366699e-01 0.000000000000000000e+00
 1.221519827842712402e+00 5.748012065887451172e-01 0.000000000000000000e+00
 1.139851808547973633e+00 7.233669757843017578e-01 0.000000000000000000e+00
 1.040170311927795410e+00 8.605006337165832520e-01 0.000000000000000000e+00
 9.241492152214050293e-01 9.841177463531494141e-01 0.000000000000000000e+00
 7.935191392898559570e-01 1.092178344726562500e+00 0.000000000000000000e+00
 6.503594517707824707e-01 1.182993769645690918e+00 0.000000000000000000e+00
 4.969803988933563232e-01 1.255221247673034668e+00 0.000000000000000000e+00
 3.357341289520263672e-01 1.307576656341552734e+00 0.000000000000000000e+00
 1.691972613334655762e-01 1.339319944381713867e+00 0.000000000000000000e+00
 0.000000000000000000e+00 1.350000023841857910e+00 0.000000000000000000e+00
 -1.691998690366744995e-01 1.339354872703552246e+00 0.000000000000000000e+00
 -3.357313573360443115e-01 1.307587265968322754e+00 0.000000000000000000e+00
 -4.969681501388549805e-01 1.255198240280151367e+00 0.000000000000000000e+00
 -6.503674387931823730e-01 1.183014035224914551e+00 0.000000000000000000e+00
 -7.935100793838500977e-01 1.092172980308532715e+00 0.000000000000000000e+00
 -9.241386055946350098e-01 9.841076731681823730e-01 0.000000000000000000e+00
 -1.040192842483520508e+00 8.605223894119262695e-01 0.000000000000000000e+00
 -1.139842748641967773e+00 7.233662009239196777e-01 0.000000000000000000e+00
 -1.221516489982604980e+00 5.748020410537719727e-01 0.000000000000000000e+00
 -1.283926248550415039e+00 4.171729385852813721e-01 0.000000000000000000e+00
 -1.326087832450866699e+00 2.529647648334503174e-01 0.000000000000000000e+00
 -1.347336053848266602e+00 8.476720005273818970e-02 0.000000000000000000e+00
 -1.347336053848266602e+00 -8.476720005273818970e-02 0.000000000000000000e+00
 -1.326087832450866699e+00 -2.529647648334503174e-01 0.000000000000000000e+00
 -1.283926248550415039e+00 -4.171729385852813721e-01 0.000000000000000000e+00
 -1.221516489982604980e+00 -5.748020410537719727e-01 0.000000000000000000e+00
 -1.139842748641967773e+00 -7.233662009239196777e-01 0.000000000000000000e+00
 -1.040192842483520508e+00 -8.605223894119262695e-01 0.000000000000000000e+00
 -9.241386055946350098e-01 -9.841076731681823730e-01 0.000000000000000000e+00
 -7.935100793838500977e-01 -1.092172980308532715e+00 0.000000000000000000e+00
 -6.503674387931823730e-01 -1.183014035224914551e+00 0.000000000000000000e+00
 -4.969681501388549805e-01 -1.255198240280151367e+00 0.000000000000000000e+00
 -3.357313573360443115e-01 -1.307587265968322754e+00 0.000000000000000000e+00
 -1.691998690366744995e-01 -1.339354872703552246e+00 0.000000000000000000e+00
 0.000000000000000000e+00 4.500000178813934326e-02 0.000000000000000000e+00
 5.642550997436046600e-03 4.469366744160652161e-02 0.000000000000000000e+00
 1.119090802967548370e-02 4.361946880817413330e-02 0.000000000000000000e+00
 1.655451767146587372e-02 4.183774814009666443e-02 0.000000000000000000e+00
 2.165718749165534973e-02 3.940700739622116089e-02 0.000000000000000000e+00
 2.643005549907684326e-02 3.637936338782310486e-02 0.000000000000000000e+00
 3.080474585294723511e-02 3.280049562454223633e-02 0.000000000000000000e+00
 3.470784798264503479e-02 2.871276997029781342e-02 0.000000000000000000e+00
 3.805748000741004944e-02 2.416091598570346832e-02 0.000000000000000000e+00
 4.076729342341423035e-02 1.920179277658462524e-02 0.000000000000000000e+00
 4.279650002717971802e-02 1.392704527825117111e-02 0.000000000000000000e+00
 4.414448887109756470e-02 8.438196033239364624e-03 0.000000000000000000e+00
 4.481643065810203552e-02 2.826116513460874557e-03 0.000000000000000000e+00
 4.481643065810203552e-02 -2.826116513460874557e-03 0.000000000000000000e+00
 4.414448887109756470e-02 -8.438196033239364624e-03 0.000000000000000000e+00
 4.279650002717971802e-02 -1.392704527825117111e-02 0.000000000000000000e+00
 4.076729342341423035e-02 -1.920179277658462524e-02 0.000000000000000000e+00
 3.805748000741004944e-02 -2.416091598570346832e-02 0.000000000000000000e+00
 3.470784798264503479e-02 -2.871276997029781342e-02 0.000000000000000000e+00
 3.080474585294723511e-02 -3.280049562454223633e-02 0.000000000000000000e+00
 2.643005549907684326e-02 -3.637936338782310486e-02 0.000000000000000000e+00
 2.165718749165534973e-02 -3.940700739622116089e-02 0.000000000000000000e+00
 1.655451767146587372e-02 -4.183774814009666443e-02 0.000000000000000000e+00
 1.119090802967548370e-02 -4.361946880817413330e-02 0.000000000000000000e+00
 5.642550997436046600e-03 -4.469366744160652161e-02 0.000000000000000000e+00
 1.447310307722397035e-17 -4.500000178813934326e-02 0.000000000000000000e+00
 -5.639995448291301727e-03 -4.464516043663024902e-02 0.000000000000000000e+00
 -1.119104493409395218e-02 -4.358624294400215149e-02 0.000000000000000000e+00
 -1.656560413539409637e-02 -4.183994233608245850e-02 0.000000000000000000e+00
 -2.167891524732112885e-02 -3.943379968404769897e-02 0.000000000000000000e+00
 -2.645033597946166992e-02 -3.640576452016830444e-02 0.000000000000000000e+00
 -3.080461919307708740e-02 -3.280358761548995972e-02 0.000000000000000000e+00
 -3.467309474945068359e-02 -2.868407964706420898e-02 0.000000000000000000e+00
 -3.799475729465484619e-02 -2.411220595240592957e-02 0.000000000000000000e+00
 -4.071721807122230530e-02 -1.916006766259670258e-02 0.000000000000000000e+00
 -4.279754310846328735e-02 -1.390576455742120743e-02 0.000000000000000000e+00
 -4.420292750000953674e-02 -8.432159200310707092e-03 0.000000000000000000e+00
 -4.491120204329490662e-02 -2.825573319569230080e-03 0.000000000000000000e+00
 -4.491120204329490662e-02 2.825573319569230080e-03 0.000000000000000000e+00
 -4.420292750000953674e-02 8.432159200310707092e-03 0.000000000000000000e+00
 -4.279754310846328735e-02 1.390576455742120743e-02 0.000000000000000000e+00
 -4.071721807122230530e-02 1.916006766259670258e-02 0.000000000000000000e+00
 -3.799475729465484619e-02 2.411220595240592957e-02 0.000000000000000000e+00
 -3.467309474945068359e-02 2.868407964706420898e-02 0.000000000000000000e+00
 -3.080461919307708740e-02 3.280358761548995972e-02 0.000000000000000000e+00
 -2.645033597946166992e-02 3.640576452016830444e-02 0.000000000000000000e+00
 -2.167891524732112885e-02 3.943379968404769897e-02 0.000000000000000000e+00
 -1.656560413539409637e-02 4.183994233608245850e-02 0.000000000000000000e+00
 -1.119104493409395218e-02 4.358624294400215149e-02 0.000000000000000000e+00
 -5.639995448291301727e-03 4.464516043663024902e-02 0.000000000000000000e+00
 -6.893327925354242325e-03 5.456630885601043701e-02 0.000000000000000000e+00
 0.000000000000000000e+00 5.499999970197677612e-02 0.000000000000000000e+00
 -8.150108158588409424e-03 6.451474875211715698e-02 0.000000000000000000e+00
 0.000000000000000000e+00 6.502751260995864868e-02 0.000000000000000000e+00
 -9.413794614374637604e-03 7.451786100864410400e-02 0.000000000000000000e+00
 0.000000000000000000e+00 7.511012256145477295e-02 0.000000000000000000e+00
 -1.068786345422267914e-02 8.460315316915512085e-02 0.000000000000000000e+00
 0.000000000000000000e+00 8.527557551860809326e-02 0.000000000000000000e+00
 -1.197582017630338669e-02 9.479837864637374878e-02 0.000000000000000000e+00
 0.000000000000000000e+00 9.555183351039886475e-02 0.000000000000000000e+00
 -1.328120753169059753e-02 1.051315888762474060e-01 0.000000000000000000e+00
 0.000000000000000000e+00 1.059671714901924133e-01 0.000000000000000000e+00
 -1.460761763155460358e-02 1.156312003731727600e-01 0.000000000000000000e+00
 0.000000000000000000e+00 1.165502369403839111e-01 0.000000000000000000e+00
 -1.595870032906532288e-02 1.263261139392852783e-01 0.000000000000000000e+00
 0.000000000000000000e+00 1.273301541805267334e-01 0.000000000000000000e+00
 -1.733817160129547119e-02 1.372457593679428101e-01 0.000000000000000000e+00
 0.000000000000000000e+00 1.383365839719772339e-01 0.000000000000000000e+00
 -1.874982565641403198e-02 1.484201550483703613e-01 0.000000000000000000e+00
 0.000000000000000000e+00 1.495997905731201172e-01 0.000000000000000000e+00
 -2.019754797220230103e-02 1.598800569772720337e-01 0.000000000000000000e+00
 0.000000000000000000e+00 1.611507833003997803e-01 0.000000000000000000e+00
 -2.168532274663448334e-02 1.716569960117340088e-01 0.000000000000000000e+00
 0.000000000000000000e+00 1.730213314294815063e-01 0.000000000000000000e+00
 -2.321724034845829010e-02 1.837833821773529053e-01 0.000000000000000000e+00
 0.000000000000000000e+00 1.852440834045410156e-01 0.000000000000000000e+00
 -2.479751594364643097e-02 1.962925493717193604e-01 0.000000000000000000e+00
[...]
<CellData>
 <DataArray Name="pos.x" type="Float32" NumberOfComponents="1" format="ascii">
 -4.177774452143475856e-03
 -2.297775948678911634e-03
 -5.014478733990679164e-03
 -2.716702785311765796e-03
 -5.854634352304868491e-03
 -3.137931566993102696e-03
 -6.700552747468862223e-03
 -3.562621180475756925e-03
 -7.554561214446258062e-03
 -3.991940033970499402e-03
 -8.419009305647120328e-03
 -4.427069271676623528e-03
 -9.296275295028440591e-03
 -4.869206023351816195e-03
 -1.018877272121343665e-02
 -5.319566697861621320e-03
 -1.109895702763125103e-02
 -5.779390329769631442e-03
 -1.202933231794529531e-02
 -6.249941988175663869e-03
 -1.298245824535591147e-02
 -6.732516257180248473e-03
 -1.396095705473119133e-02
 -7.228440797550947199e-03
 -1.496752079694032601e-02
 -7.739079999389374478e-03
 -1.600491873523750622e-02
 -8.265838735848128269e-03
 -1.707600496407305629e-02
 -8.810166228224924553e-03
 -1.818372626129245370e-02
 -9.373560033067529149e-03
 -1.933113019532646179e-02
 -9.957570162258930907e-03
 -2.052137350967676160e-02
 -1.056380334741783417e-02
 -2.175773080776468096e-02
 -1.119392746034684853e-02
 -2.304360356203660753e-02
 -1.184967610168976768e-02
 -2.438252947211223820e-02
 -1.253285337042247226e-02
 -2.577819219772159096e-02
 -1.324533882729911523e-02
 -2.723443149320832132e-02
 -1.398909266590920610e-02
 -2.875525377148125186e-02
 -1.476616110557204403e-02
 -3.034484312647776905e-02
 -1.557868202090574930e-02
 -3.200757284446437839e-02
 -1.642889082355863256e-02
 -3.374801743584372044e-02
 -1.731912661228507400e-02
 -3.557096522057085625e-02
 -1.825183860828579613e-02
 -3.748143150180344163e-02
 -1.922959289351763856e-02
 -3.948467236402883329e-02
 -2.025507947051119126e-02
 -4.158619913363056225e-02
 -2.133111966311936059e-02
 -4.379179354167715699e-02
 -2.246067387855778599e-02
 -4.610752363064996029e-02
 -2.364684975209217083e-02
 -4.853976044887226005e-02
 -2.489291069678008575e-02
 -5.109519557856956329e-02
 -2.620228488178947754e-02
 -5.378085954578457062e-02
 -2.757857466399506879e-02
 -5.660414116279580132e-02
 -2.902556649880070824e-02
 -5.957280785625538450e-02
 -3.054724135745466931e-02
 -6.269502703697245327e-02
 -3.214778567951780130e-02
 -6.597938857013511960e-02
 -3.383160289061730441e-02
 -6.943492840779078024e-02
 -3.560332551717346194e-02
 -7.307115344860327932e-02
 -3.746782793142983126e-02
 -7.689806769328055847e-02
 -3.943023976185072721e-02
 -8.092619976763179568e-02
 -4.149596000578102684e-02
 -8.516663188897599657e-02
 -4.367067188319494198e-02
 -8.963103035559429055e-02
 -4.596035847239940408e-02
 -9.433167764310892989e-02
 -4.837131917070947723e-02
 -9.928150619609167615e-02
 -5.091018702538223362e-02
 -1.044941340078716641e-01
 -5.358394698248943044e-02
 -1.099839020864263606e-01
 -5.639995510393688849e-02
 -1.016966140895972370e-02
 -8.737089050165817647e-03
 -1.224765209152083555e-02
 -1.040504027881026562e-02
 -1.433364040879662321e-02
 -1.208101043097013078e-02
 -1.643336534238704766e-02
 -1.376961044419752929e-02
 -1.855260366614033124e-02
 -1.547548600338215750e-02
 -2.069718583924231789e-02
 -1.720333032198303677e-02
 -2.287301204700521035e-02
 -1.895789705402112571e-02
 -2.508606843348734280e-02
 -2.074401337235628334e-02
 -2.734244357060281946e-02
 -2.256659324922961549e-02
 -2.964834520903141674e-02
 -2.443065097560871007e-02
 -3.201011735701360383e-02
 -2.634131495653041152e-02
 -3.443425773401802975e-02
 -2.830384182039447430e-02
 -3.692743564730033984e-02
 -3.032363088102638105e-02
 -3.949651034053466153e-02
 -3.240623899229672089e-02
 -4.214854986499990547e-02
 -3.455739583616559973e-02
 -4.489085052523770353e-02
 -3.678301968621269097e-02
 -4.773095695268270849e-02
 -3.908923369002143683e-02
 -5.067668286249050330e-02
 -4.148238271521341447e-02
 -5.373613255067037631e-02
 -4.396905080548055289e-02
 -5.691772319066518843e-02
 -4.655607929463910499e-02
 -6.023020799072192205e-02
 -4.925058562854192634e-02
 -6.368270027576196368e-02
 -5.205998294663144454e-02
 -6.728469856000704463e-02
 -5.499200047700644745e-02
 -7.104611267933945429e-02
 -5.805470480111337567e-02
 -7.497729105529245264e-02
 -6.125652204656605038e-02
 -7.908904916568007537e-02
 -6.460626106915044742e-02
 -8.339269930019439780e-02
 -6.811313768779332645e-02
 -8.790008168283382217e-02
 -7.178680003916994290e-02
 -9.262359704678732597e-02
 -7.563735512170600972e-02
 -9.757624075139455233e-02
 -7.967539660200331775e-02
 -1.027716385350437855e-01
 -8.391203396018864780e-02
 -1.082240840023719064e-01
 -8.835892305437165195e-02
 -1.139485779489028128e-01
 -9.302829818830041231e-02
 -1.199608696313105849e-01
 -9.793300577044011801e-02
 -1.262775000968547612e-01
 -1.030865396570763981e-01
 -1.329158476911933284e-01
 -1.085030782766814861e-01
 -1.398941758697744009e-01
 -1.141975236376781416e-01
 -1.472316834443478384e-01
 -1.201855423269202472e-01
 -1.549485574028327262e-01
 -1.264836086116857272e-01
 -1.630660284478607225e-01
 -1.331090497637646974e-01
 -1.716064294067921603e-01
 -1.400800937303360860e-01
 -1.805932566739044121e-01
 -1.474159192827888265e-01
 -1.900512348537888863e-01
 -1.551367087814541912e-01
 -2.000063847838100817e-01
 -1.632637037014177672e-01
 -2.104860951227638666e-01
 -1.718192630721729897e-01
 -2.215191977026936265e-01
 -1.808269249918961208e-01
 -2.331360468511724238e-01
 -1.903114713855802165e-01
 -2.453686029022835169e-01
 -2.002989961851942835e-01
 -2.582505201260513750e-01
 -2.108169771194383091e-01
 -2.718172393182406998e-01
 -2.218943513106109711e-01
 -1.600116673029542899e-02
 -1.503861303804760775e-02
 -1.928767265917500501e-02
 -1.792928407144215100e-02
 -2.258659639353990251e-02
 -2.083356454360495158e-02
 -2.590701394903917668e-02
 -2.375944472564774090e-02
 -2.925806047523114850e-02
 -2.671497431391323465e-02
 -3.264895538825315219e-02
 -2.970828457634036232e-02
 -3.608902773532564334e-02
 -3.274761072324978289e-02
 -3.958774186087431202e-02
 -3.584131456409598432e-02
 -4.315472344488190809e-02
 -3.899790751251987209e-02
 -4.679978598510813742e-02
 -4.222607400299293462e-02
 -5.053295779603393656e-02
 -4.553469538347722917e-02
 -5.436450959881088812e-02
 -4.893287434983487061e-02
 -5.830498277812153074e-02
 -5.242995998921057277e-02
 -6.236521838369000342e-02
 -5.603557350128802322e-02
 -6.655638695623231071e-02
 -5.975963466818230013e-02
 -7.089001925990574826e-02
 -6.361238914579540882e-02
 -7.537803800580362978e-02
 -6.760443665171590732e-02
 -8.003279065377991164e-02
 -7.174676012721582785e-02
 -8.486708338284236486e-02
 -7.605075595357405072e-02
 -8.989421632357733061e-02
 -8.052826530585832643e-02
 -9.512802014953571084e-02
 -8.519160673042550092e-02
 -1.005828941282525257e-01
 -9.005361003576899115e-02
 -1.062738457365838413e-01
 -9.512765158995253878e-02
 -1.122165319493539232e-01
 -1.004276911217415191e-01
 -1.184273023149023385e-01
 -1.059683101266795519e-01
 -1.249232439360450087e-01
 -1.117647519837721010e-01
 -1.317222284801972121e-01
 -1.178329638931489703e-01
 -1.388429613479949531e-01
 -1.241896407500805849e-01
 -1.463050331356886835e-01
 -1.308522710760591234e-01
 -1.541289735328901511e-01
 -1.378391851333069518e-01
 -1.623363078039582186e-01
 -1.451696053550864396e-01
 -1.709496160084151284e-01
 -1.528636992305560383e-01
 -1.799925951233203314e-01
 -1.609426347896676379e-01
 -1.894901242385129136e-01
 -1.694286388407584276e-01
 -1.994683330040904756e-01
 -1.783450581210574704e-01
 -2.099546735184330548e-01
 -1.877164235283475535e-01
 -2.209779958545566581e-01
 -1.975685176104954865e-01
 -2.325686274325789171e-01
 -2.079284454985273201e-01
 -2.447584564566692156e-01
 -2.188247094784021296e-01
 -2.575810196460397439e-01
 -2.302872874066455300e-01
 -2.710715945013366657e-01
 -2.423477151855794043e-01
 -2.852672963602755352e-01
 -2.550391735250564507e-01
 -3.002071805095481438e-01
 -2.683965792293962482e-01
 -3.159323496339252468e-01
 -2.824566812606737476e-01
 -3.324860668981676759e-01
 -2.972581618426501926e-01
 -3.499138749728670783e-01
 -3.128417428835010838e-01
 -3.682637213316694580e-01
 -3.292502980101382204e-01
 -3.875860901646077106e-01
 -3.465289705223454364e-01
 -4.079341412704602932e-01
 -3.647252975912558259e-01
 -4.293638563102581407e-01
 -3.838893410438564691e-01
 -2.158032409366065357e-02
 -2.110296911468738032e-02
 -2.602351510709682153e-02
 -2.517077234383223103e-02
 -3.048334826057840993e-02
 -2.925756089801891460e-02
 -3.497209346961498849e-02
 -3.337457837057017374e-02
 -3.950210019270944395e-02
 -3.753315152076182326e-02
 -4.408583140725061411e-02
 -4.174472143605981872e-02
 -4.873589789771978764e-02
 -4.602087500889832927e-02
 -5.346509295054450300e-02
 -5.037337681459631150e-02
 -5.828642755105305218e-02
 -5.481420147811694871e-02
 -6.321316617936270643e-02
 -5.935556661871608380e-02
 -6.825886330368495514e-02
 -6.400996646311810090e-02
 -7.343740067144675920e-02
 -6.879020621969603178e-02
 -7.876302550082334153e-02
 -7.370943730822505924e-02
 -8.425038967775884402e-02
 -7.878119354213482251e-02
 -8.991459006630689310e-02
 -8.401942836280643090e-02
 -9.577121004320016118e-02
 -8.943855322834957933e-02
 -1.018363623709155480e-01
 -9.505347726247991014e-02
 -1.081267335271873242e-01
 -1.008796482725749510e-01
 -1.146596296129289150e-01
 -1.069330952497601905e-01
 -1.214530239648647647e-01
 -1.132304724679501912e-01
 -1.285256066038666378e-01
 -1.197891053031711894e-01
 -1.358968356550321055e-01
 -1.266270378992234158e-01
 -1.435869908809765949e-01
 -1.337630828108204994e-01
 -1.516172294756202577e-01
 -1.412168727607851781e-01
 -1.600096442719650958e-01
 -1.490089146536951736e-01
 -1.687873245240101294e-01
 -1.571606459945831535e-01
 -1.779744194300215965e-01
 -1.656944938679088819e-01
 -1.875962045719332949e-01
 -1.746339366390669834e-01
 -1.976791514536494210e-01
 -1.840035685481851424e-01
 -2.082510003295860168e-01
 -1.938291673739200860e-01
 -2.193408365237946023e-01
 -2.041377653534157399e-01
 -2.309791704496552134e-01
 -2.149577235535266584e-01
 -2.431980215502788090e-01
 -2.263188098979318219e-01
 -2.560310063905610889e-01
 -2.382522810647953460e-01
 -2.695134311432449969e-01
 -2.507909684802956951e-01
 -2.836823887234444785e-01
 -2.639693686446155652e-01
 -2.985768608388565948e-01
 -2.778237380388833278e-01
 -3.142378252364341207e-01
 -2.923921928741898268e-01
 -3.307083684405686119e-01
 -3.077148139570979324e-01
 -3.480338042929587705e-01
 -3.238337569601665300e-01
 -3.662617986202735265e-01
 -3.407933684008381259e-01
 -3.854425003726221211e-01
 -3.586403076478169583e-01
 -4.056286795935947209e-01
 -3.774236752905459902e-01
 -4.268758726014761362e-01
 -3.971951482250061227e-01
 -4.492425347810387048e-01
 -4.180091218274507026e-01
 -4.727902014063010139e-01
 -4.399228596072354280e-01
 -4.975836569366821061e-01
 -4.629966507504816309e-01
 -5.236911132523279777e-01
 -4.872939759879860167e-01
 -5.511843973189900492e-01
 -5.128816822437269884e-01
 -5.801391487987290763e-01
 -5.398301665444634745e-01
 -2.681914685460820222e-02
 -2.683451876208584747e-02
 -3.234895117608527215e-02
 -3.201530250006952294e-02
 -3.789935951567792449e-02
 -3.722014803945133260e-02
 -4.348564218485893168e-02
 -4.246337497758202045e-02
 -4.912316819273779972e-02
 -4.775940850691008654e-02
 -5.482744752935659466e-02
 -5.312281910164482618e-02
 -6.061417383685265003e-02
 -5.856836260411843464e-02
 -6.649926758588632636e-02
 -6.411102082113379064e-02
 -7.249891987612004651e-02
 -6.976604274198724975e-02
 -7.862963698125369216e-02
 -7.554898649156517598e-02
 -8.490828576116843385e-02
 -8.147576213393518951e-02
 -9.135214006611692972e-02
 -8.756267544419531201e-02
 -9.797892826062633287e-02
 -9.382647276900510369e-02
 -1.048068819978665023e-01
 -1.002843870992185943e-01
 -1.118547863786627933e-01
 -1.069541854813755299e-01
 -1.191420316331654461e-01
 -1.138542178984907199e-01
 -1.266886664673442242e-01
 -1.210034677546198423e-01
 -1.345154532210913190e-01
 -1.284216041020949106e-01
 -1.426439249896767902e-01
 -1.361290357551227792e-01
 -1.510964448657064751e-01
 -1.441469674386168798e-01
 -1.598962674645784121e-01
 -1.524974581267431462e-01
 -1.690676029026967064e-01
 -1.612034817316811974e-01
 -1.786356834044655062e-01
 -1.702889903095692603e-01
 -1.886268327213133922e-01
 -1.797789799575205405e-01
 -1.990685385537307173e-01
 -1.896995595830106018e-01
 -2.099895281755713994e-01
 -2.000780227348404050e-01
 -2.214198474686704388e-01
 -2.109429226932796608e-01
 -2.333909435852314085e-01
 -2.223241510259986176e-01
 -2.459357514653856269e-01
 -2.342530198259025476e-01
 -2.590887844479668467e-01
 -2.467623478571151774e-01
 -2.728862292237858034e-01
 -2.598865508461316032e-01
 -2.873660453926363267e-01
 -2.736617361665387160e-01
 -3.025680698979328898e-01
 -2.881258021778024259e-01
 -3.185341266263203575e-01
 -3.033185424914261463e-01
 -3.353081414737505983e-01
 -3.192817554513369682e-01
 -3.529362631946426077e-01
 -3.360593591297005855e-01
 -3.714669903665578921e-01
 -3.536975121545418155e-01
 -3.909513048197323370e-01
 -3.722447407015963550e-01
 -4.114428118985578031e-01
 -3.917520719997720224e-01
 -4.329978879408601933e-01
 -4.122731747175151229e-01
 -4.556758353807758843e-01
 -4.338645066163258623e-01
 -4.795390459019045482e-01
 -4.565854698776355969e-01
 -5.046531720896241247e-01
 -4.804985745303888556e-01
 -5.310873080548147440e-01
 -5.056696104289502003e-01
 -5.589141795259295886e-01
 -5.321678282544858307e-01
 -5.882103439323833616e-01
 -5.600661300377857144e-01
 -6.190564010297341380e-01
 -5.894412697276981694e-01
 -6.515372146461518854e-01
 -6.203740643569839452e-01
 -6.857421461602016821e-01
 -6.529496163865491365e-01
 -7.217653003523134547e-01
 -6.872575478397531246e-01
 -3.163501564867669813e-02
 -3.214287201844171632e-02
 -3.816422496070018960e-02
 -3.835493221086602733e-02
 -4.471767523123535565e-02
 -4.459575121206307835e-02
 -5.131339634578429426e-02
 -5.088249879480676030e-02
 -5.796953448560848016e-02
 -5.723247109081653489e-02
 -6.470440205159515290e-02
 -6.366313817596289115e-02
 -7.153652804542610932e-02
 -7.019219213402763669e-02
 -7.848470904666164649e-02
 -7.683759573125449605e-02
 -8.556806092598492897e-02
 -8.361763183560282087e-02
 -9.280607143688193728e-02
 -9.055095371666534165e-02
 -1.002186538304472435e-01
 -9.765663636463896291e-02
 -1.078262016408212814e-01
 -1.049542289695327285e-01
 -1.156496447919847237e-01
 -1.124638087050002927e-01
 -1.237105071802706568e-01
 -1.202060359647580817e-01
 -1.320309658910167883e-01
 -1.282022112035696160e-01
 -1.406339122122763352e-01
 -1.364743335391596646e-01
 -1.495430146134414384e-01
 -1.450451612763012099e-01
 -1.587827838620616550e-01
 -1.539382745195771451e-01
 -1.683786404579864504e-01
 -1.631781400470823373e-01
 -1.783569845703753542e-01
 -1.727901786235525594e-01
 -1.887452686699737370e-01
 -1.828008349380901287e-01
 -1.995720730564953527e-01
 -1.932376503589375294e-01
 -2.108671844888818092e-01
 -2.041293387054241015e-01
 -2.226616781347828256e-01
 -2.155058652455685009e-01
 -2.349880030647233664e-01
 -2.273985291366791839e-01
 -2.478800715261385845e-01
 -2.398400495357521089e-01
 -2.613733522429330103e-01
 -2.528646556165827786e-01
 -2.755049679971982579e-01
 -2.665081807412402748e-01
 -2.903137977616148668e-01
 -2.808081610449937870e-01
 -3.058405836634642827e-01
 -2.958039387059206993e-01
 -3.221280430745872558e-01
 -3.115367701833049452e-01
 -3.392209861356197398e-01
 -3.280499397226076530e-01
 -3.571664390378930798e-01
 -3.453888784393168154e-01
 -3.760137734021176681e-01
 -3.636012893092521736e-01
 -3.958148421098409697e-01
 -3.827372784092338831e-01
 -4.166241219613595614e-01
 -4.028494927691793626e-01
 -4.384988635525524647e-01
 -4.239932652148700187e-01
 -4.614992487830352208e-01
 -4.462267665999107291e-01
 -4.856885564288837553e-01
 -4.696111658456642024e-01
 -5.111333362355343635e-01
 -4.942107982295107504e-01
 -5.379035920097728907e-01
 -5.200933423843802084e-01
 -5.660729742145732546e-01
 -5.473300064965443967e-01
 -5.957189825966057173e-01
 -5.759957242139529532e-01
 -6.269231794039488159e-01
 -6.061693608040470416e-01
 -6.597714137805491541e-01
 -6.379339301282948016e-01
 -6.943540579548205249e-01
 -6.713768230303484019e-01
 -7.307662558721816914e-01
 -7.065900477661617440e-01
 -7.691081849555423400e-01
 -7.436704831375703373e-01
 -8.094853317139635296e-01
 -7.827201450257598170e-01
 -8.520087819576478427e-01
 -8.238464670578563576e-01
 -3.595198134812328111e-02
 -3.694431298184582685e-02
 -4.337762611948180191e-02
 -4.408968172857116036e-02
 -5.083076649535180069e-02
 -5.126805274784995703e-02
 -5.833190759319922813e-02
 -5.849917521030575246e-02
 -6.590168659031971077e-02
 -6.580294341659996549e-02
 -7.356092950094361704e-02
 -7.319945153073073585e-02
 -8.133070847287263150e-02
 -8.070904886320029448e-02
 -8.923239976127843309e-02
 -8.835239585613859081e-02
 -9.728774253916515347e-02
 -9.615052092441851717e-02
 -1.055188987062903733e-01
 -1.041248783091361235e-01
 -1.139485138610977222e-01
 -1.122974071026254794e-01
 -1.225997796033990450e-01
 -1.206905916074035995e-01
 -1.314964973392244441e-01
 -1.293275231950943016e-01
 -1.406631437633671933e-01
 -1.382319638355285207e-01
 -1.501249381997939725e-01
 -1.474284114707948290e-01
 -1.599079119851722630e-01
 -1.569421674141014411e-01
 -1.700389800864187118e-01
 -1.667994059588761013e-01
 -1.805460151492910836e-01
 -1.770272463896174764e-01
 -1.914579241817499222e-01
 -1.876538275926044608e-01
 -2.028047280830706234e-01
 -1.987083854717440479e-01
 -2.146176442374860549e-01
 -2.102213333825375952e-01
 -2.269291723996156862e-01
 -2.222243458054578846e-01
 -2.397731841079568660e-01
 -2.347504454889380865e-01
 -2.531850158724287536e-01
 -2.478340943017306730e-01
 -2.672015663923562601e-01
 -2.615112880445644161e-01
 -2.818613980723640999e-01
 -2.758196554819845603e-01
 -2.972048431154513670e-01
 -2.907985618667889849e-01
 -3.132741144851592385e-01
 -3.064892172419212968e-01
 -3.301134220420883780e-01
 -3.229347898177410414e-01
 -3.477690941742834219e-01
 -3.401805247366279095e-01
 -3.662897052561356337e-01
 -3.582738685516397292e-01
 -3.857262092864516823e-01
 -3.772645997617140035e-01
 -4.061320800733375092e-01
 -3.972049657625276731e-01
 -4.275634583516242371e-01
 -4.181498265897909405e-01
 -4.500793062375319509e-01
 -4.401568058504523595e-01
 -4.737415694455536230e-01
 -4.632864492570658022e-01
 -4.986153477137986734e-01
 -4.876023912014632589e-01
 -5.247690739067397692e-01
 -5.131715298259930114e-01
 -5.522747022880436507e-01
 -5.400642110740577762e-01
 -5.812079064815165452e-01
 -5.683544222262094658e-01
 -6.116482876647469924e-01
 -5.981199954543304775e-01
 -6.436795935682720904e-01
 -6.294428219539061065e-01
 -6.773899488827701543e-01
 -6.624090772434920726e-01
 -7.128720977081299814e-01
 -6.971094582512384896e-01
 -7.502236587115125310e-01
 -7.336394328407255250e-01
 -7.895473936963072203e-01
 -7.720995024626562397e-01
 -8.309514903209186398e-01
 -8.125954786549151043e-01
 -8.745498597452215916e-01
 -8.552387741518685527e-01
 -9.204624500234990236e-01
 -9.001467094035643379e-01
 -9.688155761061381099e-01
 -9.474428353484271037e-01
 -3.970196282503728191e-02
 -4.116312006006324353e-02
 -4.790693620182148726e-02
 -4.912911062751776359e-02
 -5.614222620700839994e-02
 -5.713182646575311330e-02
 -6.443048981207714909e-02
 -6.519328468702498269e-02
 -7.279452972974249925e-02
 -7.333566401593048789e-02
 -8.125735714889317785e-02
 -8.158136580762599677e-02
 -8.984225504309192867e-02
 -8.995307567855088948e-02
 -9.857284222680816332e-02
 -9.847382591920844641e-02
 -1.074731383356226783e-01
 -1.071670588607195468e-01
 -1.165676299091666923e-01
 -1.160566913694840718e-01
 -1.258813377586156246e-01
 -1.251671806473845239e-01
 -1.354398858040726239e-01
 -1.345235915185603592e-01
 -1.452695715712242763e-01
 -1.441516653878845422e-01
 -1.553974385412260073e-01
 -1.540778910608401608e-01
 -1.658513505528683984e-01
 -1.643295776196615210e-01
 -1.766600684617053163e-01
 -1.749349295562152573e-01
 -1.878533292670695742e-01
 -1.859231243683439616e-01
 -1.994619279246531152e-01
 -1.973243928331424313e-01
 -2.115178020697469630e-01