<VTKFile type="UnstructuredGrid" byte_order="BigEndian">
<UnstructuredGrid><Piece NumberOfPoints="2462" NumberOfCells="4788">
<Points>
 <DataArray type="Float32" NumberOfComponents="3" format="ascii">
 9.526794552803039551e-01 8.443024158477783203e-01 0.000000000000000000e+00
 9.252315759658813477e-01 8.853634595870971680e-01 0.000000000000000000e+00
 9.987759590148925781e-01 9.046050906181335449e-01 0.000000000000000000e+00
 1.040170311927795410e+00 8.605006337165832520e-01 0.000000000000000000e+00
 9.469718337059020996e-01 7.920884490013122559e-01 0.000000000000000000e+00
 1.007845401763916016e+00 8.135169148445129395e-01 0.000000000000000000e+00
 8.732678294181823730e-01 8.312417268753051758e-01 0.000000000000000000e+00
 8.792540431022644043e-01 7.866562008857727051e-01 0.000000000000000000e+00
 8.009622097015380859e-01 8.098456859588623047e-01 0.000000000000000000e+00
 8.678365349769592285e-01 8.859448432922363281e-01 0.000000000000000000e+00
 9.601864814758300781e-01 9.457210898399353027e-01 0.000000000000000000e+00
 7.913396358489990234e-01 8.475466370582580566e-01 0.000000000000000000e+00
 7.123372554779052734e-01 8.089908957481384277e-01 0.000000000000000000e+00
 1.083006858825683594e+00 8.015695810317993164e-01 0.000000000000000000e+00
 8.805426359176635742e-01 7.457129955291748047e-01 0.000000000000000000e+00
 9.398183822631835938e-01 7.414501309394836426e-01 0.000000000000000000e+00
 1.014855623245239258e+00 7.648225426673889160e-01 0.000000000000000000e+00
 7.978069782257080078e-01 7.632397413253784180e-01 0.000000000000000000e+00
 7.901020050048828125e-01 7.164241671562194824e-01 0.000000000000000000e+00
 7.103309035301208496e-01 7.709391713142395020e-01 0.000000000000000000e+00
 6.373071670532226562e-01 7.519127726554870605e-01 0.000000000000000000e+00
 7.136694192886352539e-01 7.380887866020202637e-01 0.000000000000000000e+00
 8.516205549240112305e-01 9.238914251327514648e-01 0.000000000000000000e+00
 9.241492152214050293e-01 9.841177463531494141e-01 0.000000000000000000e+00
 7.654034495353698730e-01 8.777077794075012207e-01 0.000000000000000000e+00
 6.743267178535461426e-01 8.200792670249938965e-01 0.000000000000000000e+00
 5.991967916488647461e-01 7.631628513336181641e-01 0.000000000000000000e+00
 1.074691057205200195e+00 7.334689497947692871e-01 0.000000000000000000e+00
 1.139851808547973633e+00 7.233669757843017578e-01 0.000000000000000000e+00
 8.525990843772888184e-01 6.976386308670043945e-01 0.000000000000000000e+00
 9.097575545310974121e-01 6.820971965789794922e-01 0.000000000000000000e+00
 9.772458672523498535e-01 7.151603698730468750e-01 0.000000000000000000e+00
 1.022033929824829102e+00 7.002596855163574219e-01 0.000000000000000000e+00
 1.064418435096740723e+00 6.691356897354125977e-01 0.000000000000000000e+00
 7.675378918647766113e-01 6.648915410041809082e-01 0.000000000000000000e+00
 7.082431912422180176e-01 6.987547278404235840e-01 0.000000000000000000e+00
 6.992685198783874512e-01 6.559447050094604492e-01 0.000000000000000000e+00
 6.253030300140380859e-01 7.032644152641296387e-01 0.000000000000000000e+00
 5.284851193428039551e-01 7.011858820915222168e-01 0.000000000000000000e+00
 5.643509626388549805e-01 6.913440227508544922e-01 0.000000000000000000e+00
 6.247118115425109863e-01 6.682257056236267090e-01 0.000000000000000000e+00
 5.759609937667846680e-01 7.908390164375305176e-01 0.000000000000000000e+00
 5.162133574485778809e-01 7.364841699600219727e-01 0.000000000000000000e+00
 4.696990549564361572e-01 6.799498796463012695e-01 0.000000000000000000e+00
 8.684725165367126465e-01 1.030174970626831055e+00 0.000000000000000000e+00
 8.008982539176940918e-01 9.522189497947692871e-01 0.000000000000000000e+00
 7.134769558906555176e-01 8.888508677482604980e-01 0.000000000000000000e+00
 6.385031938552856445e-01 8.412801027297973633e-01 0.000000000000000000e+00
 1.120518684387207031e+00 6.676586270332336426e-01 0.000000000000000000e+00
 1.185738086700439453e+00 6.398931741714477539e-01 0.000000000000000000e+00
 8.135452270507812500e-01 6.408749222755432129e-01 0.000000000000000000e+00
 8.830397129058837891e-01 6.328401565551757812e-01 0.000000000000000000e+00
 9.561944603919982910e-01 6.469821333885192871e-01 0.000000000000000000e+00
 1.007465362548828125e+00 6.269151568412780762e-01 0.000000000000000000e+00
 1.075353741645812988e+00 6.152514815330505371e-01 0.000000000000000000e+00
 7.130036950111389160e-01 6.156651377677917480e-01 0.000000000000000000e+00
 4.306076467037200928e-01 6.337398290634155273e-01 0.000000000000000000e+00
 3.872416019439697266e-01 6.030669212341308594e-01 0.000000000000000000e+00
 4.715310931205749512e-01 6.391587853431701660e-01 0.000000000000000000e+00
 6.197353005409240723e-01 6.303815841674804688e-01 0.000000000000000000e+00
 6.294826865196228027e-01 5.958124399185180664e-01 0.000000000000000000e+00
 5.458303689956665039e-01 6.383977532386779785e-01 0.000000000000000000e+00
 5.017966032028198242e-01 6.325432062149047852e-01 0.000000000000000000e+00
 5.433163046836853027e-01 6.035366058349609375e-01 0.000000000000000000e+00
 5.883969068527221680e-01 8.555197119712829590e-01 0.000000000000000000e+00
 5.203818678855895996e-01 7.870858311653137207e-01 0.000000000000000000e+00
 4.591166377067565918e-01 7.206146717071533203e-01 0.000000000000000000e+00
 4.166713953018188477e-01 6.664234995841979980e-01 0.000000000000000000e+00
 3.751381933689117432e-01 6.293588280677795410e-01 0.000000000000000000e+00
 3.370872735977172852e-01 6.093519926071166992e-01 0.000000000000000000e+00
 7.656343579292297363e-01 1.011173248291015625e+00 0.000000000000000000e+00
 7.935191392898559570e-01 1.092178344726562500e+00 0.000000000000000000e+00
 7.129074931144714355e-01 9.565837979316711426e-01 0.000000000000000000e+00
 6.537241339683532715e-01 9.070460796356201172e-01 0.000000000000000000e+00
 1.221519827842712402e+00 5.748012065887451172e-01 0.000000000000000000e+00
 7.503529191017150879e-01 5.848538279533386230e-01 0.000000000000000000e+00
 1.136893153190612793e+00 5.901294350624084473e-01 0.000000000000000000e+00
 8.207772374153137207e-01 5.908176302909851074e-01 0.000000000000000000e+00
 1.053169846534729004e+00 5.616022944450378418e-01 0.000000000000000000e+00
 8.838827610015869141e-01 5.832782983779907227e-01 0.000000000000000000e+00
 9.387427568435668945e-01 5.746628046035766602e-01 0.000000000000000000e+00
 9.923006296157836914e-01 5.613738894462585449e-01 0.000000000000000000e+00
 6.550325155258178711e-01 5.638650059700012207e-01 0.000000000000000000e+00
 4.129451513290405273e-01 5.896872282028198242e-01 0.000000000000000000e+00
 3.436307907104492188e-01 5.763052105903625488e-01 0.000000000000000000e+00
 3.562963902950286865e-01 5.530664324760437012e-01 0.000000000000000000e+00
 4.424804747104644775e-01 5.847944617271423340e-01 0.000000000000000000e+00
 5.439550876617431641e-01 5.685909390449523926e-01 0.000000000000000000e+00
 5.582045912742614746e-01 5.439370870590209961e-01 0.000000000000000000e+00
 4.759894311428070068e-01 5.804114341735839844e-01 0.000000000000000000e+00
 4.835499823093414307e-01 5.547260642051696777e-01 0.000000000000000000e+00
 5.882897377014160156e-01 9.101330637931823730e-01 0.000000000000000000e+00
 5.121253132820129395e-01 8.298333883285522461e-01 0.000000000000000000e+00
 4.475702643394470215e-01 7.672120928764343262e-01 0.000000000000000000e+00
 4.012345373630523682e-01 7.096111178398132324e-01 0.000000000000000000e+00
 3.694894909858703613e-01 6.663476228713989258e-01 0.000000000000000000e+00
 3.290802836418151855e-01 6.423361301422119141e-01 0.000000000000000000e+00
 2.985150814056396484e-01 5.883890390396118164e-01 0.000000000000000000e+00
 3.028672933578491211e-01 5.546808838844299316e-01 0.000000000000000000e+00
 7.160720229148864746e-01 1.141308069229125977e+00 0.000000000000000000e+00
 6.892461776733398438e-01 1.044907569885253906e+00 0.000000000000000000e+00
 6.386252045631408691e-01 9.730770587921142578e-01 0.000000000000000000e+00
 1.235855221748352051e+00 5.385860204696655273e-01 0.000000000000000000e+00
 1.143905043601989746e+00 5.431323647499084473e-01 0.000000000000000000e+00
 6.909126639366149902e-01 5.301803350448608398e-01 0.000000000000000000e+00
 7.631479501724243164e-01 5.327193737030029297e-01 0.000000000000000000e+00
 1.058657526969909668e+00 5.247394442558288574e-01 0.000000000000000000e+00
 8.174090981483459473e-01 5.262939333915710449e-01 0.000000000000000000e+00
 9.764097929000854492e-01 5.038781166076660156e-01 0.000000000000000000e+00
 8.674782514572143555e-01 5.174658894538879395e-01 0.000000000000000000e+00
 9.157269001007080078e-01 5.086790919303894043e-01 0.000000000000000000e+00
 5.961347222328186035e-01 5.214431881904602051e-01 0.000000000000000000e+00
 5.056117177009582520e-01 5.036846399307250977e-01 0.000000000000000000e+00
 6.332183480262756348e-01 4.897125661373138428e-01 0.000000000000000000e+00
 1.250982403755187988e+00 5.003705620765686035e-01 0.000000000000000000e+00
 3.740201592445373535e-01 5.384525656700134277e-01 0.000000000000000000e+00
 3.063405454158782959e-01 5.223152637481689453e-01 0.000000000000000000e+00
 2.667017281055450439e-01 5.015707015991210938e-01 0.000000000000000000e+00
 3.164681494235992432e-01 4.995978474617004395e-01 0.000000000000000000e+00
 3.996984958648681641e-01 5.324046015739440918e-01 0.000000000000000000e+00
 4.657013118267059326e-01 5.153148174285888672e-01 0.000000000000000000e+00
 4.204822480678558350e-01 5.211218595504760742e-01 0.000000000000000000e+00
 4.291911125183105469e-01 4.655386805534362793e-01 0.000000000000000000e+00
 5.343999266624450684e-01 9.272473454475402832e-01 0.000000000000000000e+00
 5.051326751708984375e-01 8.711668848991394043e-01 0.000000000000000000e+00
 4.287189543247222900e-01 8.112336993217468262e-01 0.000000000000000000e+00
 3.781389594078063965e-01 7.517891526222229004e-01 0.000000000000000000e+00
 3.405072987079620361e-01 6.962378621101379395e-01 0.000000000000000000e+00
[...]
<CellData>
 <DataArray Name="pos.x" type="Float32" NumberOfComponents="1" format="ascii">
 1.000231698934237690e+00
 9.972085548632290131e-01
 9.170596200241392104e-01
 9.588956625921715160e-01
 9.691655500122242639e-01
 9.263017702798820308e-01
 9.017337773563368630e-01
 8.887786529684422732e-01
 9.177515379889353841e-01
 9.613980095529446324e-01
 1.043674152265160693e+00
 9.224442733494834235e-01
 9.022561647545003227e-01
 9.898909238306697889e-01
 9.672152526933074368e-01
 1.035235922297782274e+00
 8.501096282227649237e-01
 8.473555289582008765e-01
 8.240123468803226547e-01
 8.499662277290209733e-01
 8.223876841208233035e-01
 7.675442631742724897e-01
 7.416541816745201299e-01
 8.200461382120591836e-01
 7.708128746344198312e-01
 8.932145205961328216e-01
 8.369322448294864714e-01
 9.119854166709354670e-01
 8.027878756763326962e-01
 7.380026204115371913e-01
 7.563601262961617833e-01
 6.746570574537634757e-01
 7.173558128877923767e-01
 6.866584575745243724e-01
 1.057517796035606805e+00
 1.099183190177166924e+00
 8.909866887876938257e-01
 8.410812291840756849e-01
 9.007250042832133374e-01
 9.422739404648039496e-01
 9.773066043131130032e-01
 1.004711782364129169e+00
 1.037193498197628072e+00
 7.399065304275267430e-01
 7.653840585714938305e-01
 7.523028003159347721e-01
 8.034129808940575490e-01
 7.325378974289689094e-01
 6.831011284178787335e-01
 6.576470470806244917e-01
 6.369435686805667851e-01
 6.002849812705075561e-01
 6.089870595497969274e-01
 6.545614311396338314e-01
 6.822081401893836938e-01
 8.059740807172047772e-01
 8.588893459451678591e-01
 8.645066828534302417e-01
 7.177357111759919972e-01
 7.599262296252368154e-01
 6.754356286511499219e-01
 6.373422415897562754e-01
 5.678809679569439828e-01
 6.045536596489603509e-01
 5.640109624876706862e-01
 1.053714457726438125e+00
 1.086542724577299834e+00
 1.111687159190044349e+00
 1.148702870059318926e+00
 8.586339543052272649e-01
 8.112273905196841772e-01
 8.687808307413843467e-01
 9.163305684772419246e-01
 9.477326282226856691e-01
 9.851580737455024606e-01
 9.952312285241383671e-01
 1.031305896671562250e+00
 1.049079179522631522e+00
 1.086763640604203385e+00
 7.266033637664899292e-01
 7.646956015065555778e-01
 6.508967665370916089e-01
 6.757489956327112912e-01
 6.494955048129781305e-01
 6.805849700597884633e-01
 5.784947973573907332e-01
 5.986150876099722851e-01
 5.047991826705539031e-01
 4.899050929927850628e-01
 5.006042670092569757e-01
 5.315442199560742598e-01
 5.402198190949868417e-01
 5.373259765465077109e-01
 5.712861667164981228e-01
 5.959211365938686944e-01
 5.615799240220418209e-01
 6.009536898358832646e-01
 5.375187449731692046e-01
 4.816763543909721723e-01
 4.985706304228993968e-01
 4.389927027950090155e-01
 4.484956944784127542e-01
 4.572792730297915997e-01
 8.092086813357149966e-01
 8.116683919422872373e-01
 7.598133723873140566e-01
 7.424275773093433894e-01
 6.933695371774121208e-01
 6.685681069684668021e-01
 6.268747500939878536e-01
 1.110921861182661452e+00
 1.147716656025020043e+00
 1.181383712838527167e+00
 7.589672756943476317e-01
 7.948917853330013106e-01
 8.391207116987916548e-01
 8.625665534486064434e-01
 9.077056277208844781e-01
 9.674675108291163061e-01
 9.262733187806444501e-01
 9.795028971201121815e-01
 1.025039897666204292e+00
 1.040274722235321914e+00
 1.088472224670200106e+00
 6.658396303651707981e-01
 7.061296982596702021e-01
 4.383612981854949076e-01
 4.102648020970079412e-01
 4.115068847148585229e-01
 3.854943825506475519e-01
 3.686702044922097743e-01
 3.623896036225147665e-01
 3.930170660381976933e-01
 4.423189056932508301e-01
 4.719360545540211560e-01
 5.690022194763452168e-01
 5.977243585998310849e-01
 5.772141296730569637e-01
 6.142399361915877876e-01
 5.078721323634262097e-01
 5.217120322808322941e-01
 4.734221633177611022e-01
 5.009519000688008594e-01
 5.236071173869419892e-01
 6.101369274643145824e-01
 5.403013786680527231e-01
 5.629373218522235600e-01
 4.933591696203616372e-01
 4.756896004240819265e-01
 4.359738143328670823e-01
 4.256741844191306856e-01
 3.957984720716483107e-01
 3.870996936450248893e-01
 3.519520909184014612e-01
 3.605716542175166350e-01
 3.452190161455377382e-01
 3.128232190637760257e-01
 3.278617918804514475e-01
 3.215608800297463654e-01
 7.494665628418022418e-01
 7.225960086886282774e-01
 7.329457865681977546e-01
 6.802596149889839072e-01
 6.684189385557404162e-01
 6.268796857171233805e-01
 1.200426729377523927e+00
 1.167439345654178062e+00
 7.348045095500513879e-01
 7.780926943709985943e-01
 6.987660230773785619e-01
 1.082906825807485651e+00
 1.113151905978188028e+00
 8.406896951670698170e-01
 8.004447624552473162e-01
 1.029412391422652284e+00
 1.007293403432151679e+00
 8.967012628153299136e-01
 8.562567134740223240e-01
 9.073159865573945382e-01
 9.489234288137188278e-01
 9.614791105566425911e-01
 6.031239360778156700e-01
 6.473599550691079285e-01
 4.098152605975343143e-01
 3.810872335434165037e-01
 3.176128816322921211e-01
 3.354225798005439074e-01
 3.489282335118483180e-01
 3.263683586971125039e-01
 4.393894646954077388e-01
 4.053997108359448376e-01
 5.226203327610522420e-01
 4.977354595984246344e-01
 5.533170154735843616e-01
 5.098392186753532007e-01
 4.600072207947160652e-01
 4.320567216566843505e-01
 4.565778501679966239e-01
 5.871049331002214933e-01
 5.351825703679449209e-01
 5.426074233631427157e-01
 4.819923164687983097e-01
 4.628048589053789241e-01
 4.181427289402461223e-01
 4.089812535640099944e-01
 3.704104446617301205e-01
 3.732935962403596264e-01
 3.463590281631331314e-01
 3.235087491155379524e-01
 3.047020789243035099e-01
 3.038942218561079822e-01
 2.792462261246688726e-01
 2.879689848940407138e-01
 2.720586501285749415e-01
 2.919698530084012811e-01
 2.773645290868248514e-01
 6.540146848975286753e-01
 6.696939431749546756e-01
 6.384827462141781096e-01
 6.343826662504099545e-01
 6.227621440772698191e-01
 5.827672372002666856e-01
 1.179017324358079710e+00
 1.214709786540443259e+00
 1.123348472269018572e+00
 1.090470437612466315e+00
 6.749091893822690702e-01
 7.182190532665748695e-01
 6.400885776574727348e-01
 7.771414017433649901e-01
 7.382038773756510741e-01
 1.006544185466578423e+00
 1.037357151485700513e+00
 8.279764576268743292e-01
 7.891060786080382750e-01
 9.545796519141420688e-01
 9.316335649947175002e-01
 8.376601571350047459e-01
 8.765551367242219172e-01
 8.883170334186133443e-01
 5.940483801933057473e-01
 5.515128370007102987e-01
 4.668347217269020466e-01
 5.168842416453282018e-01
 4.756839231697522763e-01
 6.209744646577602945e-01
 6.584840057726837337e-01
 5.913594508031766450e-01
 1.229120017628681394e+00
 1.192558740527421834e+00
 3.408576443149107238e-01
 3.686010945848896547e-01
 3.000987790959211421e-01
 2.835099715754607064e-01
 2.442133795305094224e-01
 2.536806953914417240e-01
 2.638967314505119566e-01
 2.494417187226788957e-01
 2.927047185031506071e-01
 3.109037089074020987e-01
 3.904650866267224130e-01
 3.609992134143846232e-01
 4.252802540953413146e-01
 4.281832101818699443e-01
 3.871179896920957653e-01
 3.842550190817478062e-01
 4.524523324898808707e-01
 3.899553597971843200e-01
 4.125547526457218894e-01
 5.222516009336946041e-01
 4.734286194013928029e-01
 4.894467459308891599e-01
 4.542197671821994187e-01
 3.858411683747272058e-01
 4.027307490532637813e-01
 3.459384285047076846e-01
 3.425523317465729023e-01
 3.047089999471921384e-01
 3.073996949150356595e-01
 2.763861049839354544e-01
 2.725840190853027756e-01
 2.556178227579160023e-01
 2.592858009668456143e-01
 2.361608036004201050e-01
 2.285438381271206187e-01
 2.444812594974513920e-01
 2.367077605675340368e-01
 2.236998762396817109e-01
 2.102344956913555774e-01
 2.137750641582736033e-01
 1.919470732742494801e-01
 2.143356298077037647e-01
 1.946818139117616475e-01
 1.857586379266337462e-01
 5.864581192716586955e-01
 5.801982000993373134e-01
 5.346350651051617886e-01
 5.647554911318546367e-01
 5.287294723159308152e-01
 5.555249283005745387e-01
 5.066298142071372634e-01
 1.101418959390308316e+00
 1.134936765466360686e+00
 1.044982267350046179e+00
 1.013798494101986858e+00
 7.145559280542348457e-01
 6.781459203355829635e-01
 7.628859092996432834e-01
 7.272732831135679810e-01
 9.611702070681243937e-01
 9.327643308994003624e-01
 7.747287910382045784e-01
 8.106326598547337614e-01
 8.649544815067296000e-01
 8.864556920680984886e-01
 8.261650875320818432e-01
 5.267348035114870486e-01
 5.586744694767411534e-01
 4.688837147036774566e-01
 5.019658672497059326e-01
 4.379271517265362346e-01
 4.026174565104663761e-01
 6.055510271913571163e-01
 5.700597959855527863e-01
 6.210756335450881016e-01
 6.561609855743867348e-01
 1.251732559420034807e+00
 1.213560701949318199e+00
 1.276873408129620469e+00
 1.244418550029351200e+00
 1.110127517595959956e+00
 1.126930023846446138e+00
 1.167410210084015798e+00
 3.024470504406848725e-01
 3.247991046776873558e-01
 2.168331750817069914e-01
 2.314257607058559374e-01
 1.861739409344040641e-01
 1.699480934392210429e-01
 1.583626599767344600e-01
 1.565820633679709806e-01
 1.672728118586239987e-01
 1.986714981018227189e-01
 2.661542853348710103e-01
 2.539351058026919072e-01
 2.323238343463382150e-01
 2.746756679487530883e-01
 2.565818932471907732e-01
 3.475850399120829493e-01
 3.147320281100123296e-01
 3.475194539306458719e-01
 3.395790914905746360e-01
 3.160214986263090164e-01
 3.351391287253156492e-01
 3.698777601812331395e-01
 4.142962452026082709e-01
 3.931143567197331046e-01
 4.366249441919619612e-01
 3.788253536031676028e-01
 3.015287973011866463e-01
 3.071571422578994182e-01
 3.332646923095416436e-01
 2.654869013072431172e-01
 2.691155507225125865e-01
 2.345383024243435643e-01
 2.406974657549771912e-01
 2.254331470919780089e-01
 2.143148759876727649e-01
 2.156264603962059490e-01
 1.943213675665012019e-01
 2.017379158398018846e-01
 1.857297020212240191e-01
 1.920656843649112266e-01
 1.716730795222004557e-01
 1.750950368984571792e-01
 1.604207873762473202e-01
 1.420728076150728492e-01
 1.314995012410157815e-01
 1.391567325115368181e-01
 1.267899517104405516e-01
 1.425930336497448492e-01
 1.284456562398852975e-01
 1.131604974842129185e-01
 1.100584283254726209e-01
 5.002956657561312692e-01
 5.057696460199074817e-01
 4.444497860806075340e-01
 4.670552859935400702e-01
 4.196544811440298117e-01
 4.512082414397281527e-01
 4.079988274091950196e-01
 3.700921003027493050e-01
 4.015702304598547379e-01
 4.366655855544064879e-01
 1.051529840294741946e+00
 1.019902396124882982e+00
 9.394034777285354965e-01
 9.669518935372486412e-01
 1.033618619403621208e+00
 1.078590264442623070e+00
 6.661884545115410727e-01
 7.008907443320662178e-01
 7.077333401776858546e-01
 7.459587606977586827e-01
 8.725924226903936098e-01
 8.971343321821270145e-01
 7.503834380442437890e-01
 8.127656059856700477e-01
 7.815600614364308640e-01
 8.376917305826210303e-01
 5.494933209172175870e-01
 5.133390581466218405e-01
 4.594601749690783721e-01
 4.908722503016779704e-01
 5.614795297109396177e-01
 5.975706111330083559e-01
 6.047510050086630784e-01
 6.382834963578984944e-01
 1.210456197060053363e+00
 1.171619714585446781e+00
 1.217563870020632821e+00
 1.257443344488464065e+00
 1.300230549543251124e+00
 1.266736620419962600e+00
 1.082477393174415159e+00
 1.135026657079690082e+00
 1.294554536389779464e+00
 1.316408544340031961e+00
 2.786249772535123737e-01
 2.609206713292561708e-01
 1.247961278510905658e-01
 1.124423778364147808e-01
 1.397104214000197964e-01
 1.132092939754841959e-01
 1.506503535717168829e-01
 1.651183992839281300e-01
 1.938623000806002361e-01
 2.129220507009649821e-01
 1.765350487578884187e-01
 2.108733408386062880e-01
 2.306983454665699207e-01
 2.327238543963291162e-01
 2.626000005204149335e-01
 2.800233227899514010e-01
 2.733230652967683638e-01
 2.589291754912904087e-01
 3.063553707110645008e-01
 3.166170565633312783e-01
 3.456151546990988144e-01
 3.314106934185178654e-01
 2.993115545440708236e-01
 3.323891010625183995e-01
 3.070319206077650742e-01
 2.554553481648029201e-01
 2.588460787263014984e-01
 2.186063495330248241e-01
 2.230095577187524436e-01
 1.866776823244589156e-01
 1.945777776147790405e-01
 1.722638352605827816e-01
 1.858417703028431844e-01
 1.705241133247173413e-01
 1.651889517182775768e-01
 1.570662531519763649e-01
 1.492772127287694262e-01
 1.404576139270177215e-01
 1.487284579535551043e-01
 1.338024355686372180e-01
 1.031268727173544064e-01
 1.131955044277211248e-01
 9.613264284114964031e-02
 9.762780396171683028e-02
 8.212746755158058243e-02
 8.601962826904498149e-02
 9.855404412510493373e-02
 8.615917974857865980e-02
 8.446602344612158531e-02
 4.162665223375722756e-01
 3.858199789917521327e-01
 3.636653594706311110e-01
 3.409560759913700112e-01
 3.405535592460756655e-01
 3.071699374856099451e-01
 2.964975931950969423e-01
 4.050824287759227094e-01
 4.366036949360934671e-01
 3.548829926355790421e-01
 3.828721365552992806e-01
 9.091844798347318291e-01
 8.852108268504526034e-01
 9.486564009751069504e-01
 9.836956826716246605e-01
 1.043245261469890384e+00
 9.702318178449081953e-01
 9.961426559787325274e-01
 6.431565809619517182e-01
 6.779041349612184852e-01
 7.181178864641316606e-01
 6.838640039011744109e-01
 7.286349781078763632e-01
 7.675225241521216324e-01
 8.267151712747419223e-01
 8.496923580508292106e-01
 7.877515093934535084e-01
 5.015840403107320045e-01
 5.360370569493981829e-01
 4.543615243736665588e-01
 4.799664855523594342e-01
 4.371615235740489158e-01
 5.753713330133140014e-01
 5.427484663761167338e-01
 6.139773694214739619e-01
 5.797246128220708838e-01
 1.259035768369904051e+00
 1.239364596383678796e+00
 1.141296391106078500e+00
 1.184997121572400225e+00
 1.204875242140745817e+00
 1.180801988971918792e+00
 1.057254143147861258e+00
 1.102756008878791327e+00
 1.304792838870791005e+00
 1.273423882574874710e+00
 1.249520820024236256e+00
 1.325683780705844361e+00
 7.417141556857856366e-02
 7.346308374333845870e-02
 8.325479322500391188e-02
 9.635798942677017975e-02
 1.057868823940621567e-01
 1.203366871070723904e-01
 2.296956325421686262e-01
 2.175237923423371245e-01
 1.443443469156685532e-01
 1.289449739999540268e-01
 1.692330636072748029e-01
 1.515104074772658793e-01
 1.903698355582187918e-01
 1.741111420186030045e-01
 1.949947781321910156e-01
 2.138754693915743410e-01
 2.256856900711616265e-01
 2.166333663666337728e-01
 2.405311094083030787e-01
 2.639773229183083880e-01
 2.930931343446042114e-01
 3.035865473052924424e-01
 3.363783074605016798e-01
 2.025114406610621365e-01
 2.395425097852208196e-01
 2.263889775524895731e-01
 2.234558067782035640e-01
 1.750003695470314369e-01
 1.764590962307118760e-01
 1.402216418539467824e-01
 1.474957464456465028e-01
 1.416800516099045448e-01
 1.385204107098928494e-01
 1.195477749939141826e-01
 1.213539681996907565e-01
 1.220494554944868137e-01
 1.166278150820495851e-01
 1.038720186018429609e-01
 1.144911366111674988e-01
 1.021550494967893019e-01
 8.112600583790405273e-02
 7.505921632052665882e-02
 7.004646973451535141e-02
 6.317412590090154545e-02
 6.806556615807790589e-02
 5.508949334473240561e-02
 5.819098278971699539e-02
 5.732312080171265978e-02
 5.975491033331875590e-02
 5.128329581984224228e-02
 6.063505377687597453e-02
 4.708466689013038331e-02
 4.389692094147047696e-02
 1.661004599816481020e-01
 1.722120944613305393e-01
 2.826705682031639966e-01
 5.418908096533339713e-02
 -7.807856948196781888e-01
 -8.630132905371707963e-01
 -6.895286504975394193e-01
 -4.858026315524451300e-01
 -5.906813356740331367e-01
 -9.349146593451679310e-01
 -9.507206358789382916e-02
 -1.492620134576876645e-01
 -2.611724626818723860e-01
 -4.130086411980904981e-01
 2.374365872986930470e-01
 2.095976228563070087e-01
 5.970201822516986445e-02
 1.007504571287707179e-01
 1.740357135472353212e-01
 2.210597802548914526e-01
 1.843347863727502756e-01
 3.885124388994761757e-01
 4.112805597580548311e-01
 3.643194586538938129e-01
 3.401744711346381123e-01
 4.106030618790275089e-01
 4.344016353960397092e-01
 8.423367571004141130e-01
 8.689380366703618463e-01
 9.002672906050712687e-01
 9.262753469187248179e-01
 1.022884720176845175e+00
 9.684381906276540164e-01
 9.811713731478028944e-01
 9.290001242643862733e-01
 6.530699717466669219e-01
 6.179308912662310194e-01
 7.005885337396140500e-01
 6.592774099413645228e-01
 7.068012872747941877e-01
 7.758567028359734108e-01
 7.410326350092013570e-01
 8.074647637668306288e-01
 4.865141116706403479e-01
 5.148430758557321907e-01
 4.610004442223687438e-01
 4.344929291264723603e-01
 5.489249326003688978e-01
 5.166662622712238084e-01
 5.514782752739797456e-01
 5.862314773404411206e-01
 1.183021428674248421e+00
 1.176721396297454314e+00
 1.217422258486205111e+00
 1.136810583758419702e+00
 1.102465334131621733e+00
 1.134754829980507251e+00
 1.029678963537856484e+00
 1.063757711761695646e+00
 1.251539724721896008e+00
 1.217234111516024120e+00
 1.307415703583261868e+00
 1.264640603895232918e+00
 1.326100305220290654e+00
 1.303791160242677494e+00
 1.325006746026506033e+00
 9.692897633260315615e-01
 9.561576427380753529e-01
 1.001097737096768192e+00
 6.717764994854918958e-02
 5.805784281616882536e-02
 7.954657039092191684e-02
 8.665310676688880998e-02
 9.979022256826300397e-02
 1.056849392266281940e-01
 1.202898859453095520e-01
 1.887650682008606418e-01
 1.820562171413082631e-01
 1.249614087141776714e-01
 1.407825573304207767e-01
 1.436773286125273275e-01
 1.592832571707027134e-01
 1.626033897194339162e-01
 1.772121834989893174e-01
 1.743127805221232618e-01
 1.958964604959819167e-01
 2.381952334169150642e-01
 1.960027940052181672e-01
 2.144038238844815647e-01
 2.872824814983353514e-01
 2.585852103975816996e-01
 3.106860734031995364e-01
 3.484524573985824797e-02
 4.500080777271474319e-02
 3.855052282627861870e-02
 3.000965528726873277e-02
 4.233351518576164429e-02
 1.933189181483545641e-02
 2.150018968047183107e-02
 1.018238151025497584e-01
 1.156948849039777377e-01
 1.465861796798940686e-01
 1.366205382565616466e-01
 9.787738829962577825e-02
 9.281755801856003685e-02
 8.576897611100146868e-02
 7.137269400841277089e-02
 8.759417468439105459e-02
 8.916068690202058611e-02
 6.847249398523240493e-02
 7.873507346712946275e-02
 6.787886996211481283e-02
 6.832514781756880706e-02
 4.556536060403105354e-02
 4.963273611450568640e-02
 2.420123208618565197e-02
 3.742415287740968183e-02
 2.924095036782247553e-02
 3.431076667998397139e-02
 3.058335541245501069e-02
 2.797373677958981189e-02
 2.213470995343257489e-02
 -8.872356773099051575e-01
 -1.086171717299459161e+00
 -1.134199583156372926e+00
 -1.169056672374572114e+00
 -1.190193267834475987e+00
 -1.679816519138920272e-01
 -7.571829077998712410e-02
 -6.717334833184918086e-01
 -4.655435644583993393e-01
 -3.302170191642426200e-01
 -1.143624410644780848e-01
 -2.614419069022123725e-03
 8.156728485712209931e-02
 -4.134465417744307390e-03
 5.995145009600560959e-02
 3.646779380892377076e-01
 3.881934204557925261e-01
 2.991796911025834116e-01
 3.420333222425280262e-01
 3.142297122651596664e-01
 4.047812155969232051e-01
 3.822802804432557378e-01
 8.529467629825925323e-01
 8.123014015374446783e-01
 8.673413543076862187e-01
 9.053580016821393128e-01
 9.197823376356814018e-01
 5.918116192574239820e-01
 6.297184713779094833e-01
 6.719361192433369601e-01
 6.361644271447083332e-01
 7.221373296869929570e-01
 6.785074364645755640e-01
 7.367941952423784358e-01
 7.833349454013561752e-01
 4.607797243663389053e-01
 4.881165782300981304e-01
 4.353373540847244594e-01
 4.058463604112098611e-01
 4.898847559191393808e-01
 5.209877826338763507e-01
 5.251137622818918826e-01
 5.611843968389713666e-01
 1.153500313795976284e+00
 1.179441173772506568e+00
 1.117583007335407164e+00
 1.105137555896764656e+00
 1.068197086450488165e+00
 1.051736068027543158e+00
 1.014073575244539338e+00
 1.240290638081444241e+00
 1.195847307086208344e+00
 1.166773095471079102e+00
 1.260756592791896447e+00
 1.321950376808924688e+00
 1.299639343048608175e+00
 1.237520615640858468e+00
 1.255187780113775187e+00
 1.319997972507262807e+00
 1.294628895309113847e+00
 9.144713231730197123e-01
 9.476118312541469413e-01
 8.997739501425039421e-01
 9.611772617210867509e-01