<VTKFile type="UnstructuredGrid" byte_order="BigEndian">
<UnstructuredGrid><Piece NumberOfPoints="2462" NumberOfCells="4788">
<Points>
 <DataArray type="Float32" NumberOfComponents="3" format="ascii">
 9.526794552803039551e-01 8.443024158477783203e-01 0.000000000000000000e+00
 9.252315759658813477e-01 8.853634595870971680e-01 0.000000000000000000e+00
 9.987759590148925781e-01 9.046050906181335449e-01 0.000000000000000000e+00
 1.040170311927795410e+00 8.605006337165832520e-01 0.000000000000000000e+00
 9.469718337059020996e-01 7.920884490013122559e-01 0.000000000000000000e+00
 1.007845401763916016e+00 8.135169148445129395e-01 0.000000000000000000e+00
 8.732678294181823730e-01 8.312417268753051758e-01 0.000000000000000000e+00
 8.792540431022644043e-01 7.866562008857727051e-01 0.000000000000000000e+00
 8.009622097015380859e-01 8.098456859588623047e-01 0.000000000000000000e+00
 8.678365349769592285e-01 8.859448432922363281e-01 0.000000000000000000e+00
 9.601864814758300781e-01 9.457210898399353027e-01 0.000000000000000000e+00
 7.913396358489990234e-01 8.475466370582580566e-01 0.000000000000000000e+00
 7.123372554779052734e-01 8.089908957481384277e-01 0.000000000000000000e+00
 1.083006858825683594e+00 8.015695810317993164e-01 0.000000000000000000e+00
 8.805426359176635742e-01 7.457129955291748047e-01 0.000000000000000000e+00
 9.398183822631835938e-01 7.414501309394836426e-01 0.000000000000000000e+00
 1.014855623245239258e+00 7.648225426673889160e-01 0.000000000000000000e+00
 7.978069782257080078e-01 7.632397413253784180e-01 0.000000000000000000e+00
 7.901020050048828125e-01 7.164241671562194824e-01 0.000000000000000000e+00
 7.103309035301208496e-01 7.709391713142395020e-01 0.000000000000000000e+00
 6.373071670532226562e-01 7.519127726554870605e-01 0.000000000000000000e+00
 7.136694192886352539e-01 7.380887866020202637e-01 0.000000000000000000e+00
 8.516205549240112305e-01 9.238914251327514648e-01 0.000000000000000000e+00
 9.241492152214050293e-01 9.841177463531494141e-01 0.000000000000000000e+00
 7.654034495353698730e-01 8.777077794075012207e-01 0.000000000000000000e+00
 6.743267178535461426e-01 8.200792670249938965e-01 0.000000000000000000e+00
 5.991967916488647461e-01 7.631628513336181641e-01 0.000000000000000000e+00
 1.074691057205200195e+00 7.334689497947692871e-01 0.000000000000000000e+00
 1.139851808547973633e+00 7.233669757843017578e-01 0.000000000000000000e+00
 8.525990843772888184e-01 6.976386308670043945e-01 0.000000000000000000e+00
 9.097575545310974121e-01 6.820971965789794922e-01 0.000000000000000000e+00
 9.772458672523498535e-01 7.151603698730468750e-01 0.000000000000000000e+00
 1.022033929824829102e+00 7.002596855163574219e-01 0.000000000000000000e+00
 1.064418435096740723e+00 6.691356897354125977e-01 0.000000000000000000e+00
 7.675378918647766113e-01 6.648915410041809082e-01 0.000000000000000000e+00
 7.082431912422180176e-01 6.987547278404235840e-01 0.000000000000000000e+00
 6.992685198783874512e-01 6.559447050094604492e-01 0.000000000000000000e+00
 6.253030300140380859e-01 7.032644152641296387e-01 0.000000000000000000e+00
 5.284851193428039551e-01 7.011858820915222168e-01 0.000000000000000000e+00
 5.643509626388549805e-01 6.913440227508544922e-01 0.000000000000000000e+00
 6.247118115425109863e-01 6.682257056236267090e-01 0.000000000000000000e+00
 5.759609937667846680e-01 7.908390164375305176e-01 0.000000000000000000e+00
 5.162133574485778809e-01 7.364841699600219727e-01 0.000000000000000000e+00
 4.696990549564361572e-01 6.799498796463012695e-01 0.000000000000000000e+00
 8.684725165367126465e-01 1.030174970626831055e+00 0.000000000000000000e+00
 8.008982539176940918e-01 9.522189497947692871e-01 0.000000000000000000e+00
 7.134769558906555176e-01 8.888508677482604980e-01 0.000000000000000000e+00
 6.385031938552856445e-01 8.412801027297973633e-01 0.000000000000000000e+00
 1.120518684387207031e+00 6.676586270332336426e-01 0.000000000000000000e+00
 1.185738086700439453e+00 6.398931741714477539e-01 0.000000000000000000e+00
 8.135452270507812500e-01 6.408749222755432129e-01 0.000000000000000000e+00
 8.830397129058837891e-01 6.328401565551757812e-01 0.000000000000000000e+00
 9.561944603919982910e-01 6.469821333885192871e-01 0.000000000000000000e+00
 1.007465362548828125e+00 6.269151568412780762e-01 0.000000000000000000e+00
 1.075353741645812988e+00 6.152514815330505371e-01 0.000000000000000000e+00
 7.130036950111389160e-01 6.156651377677917480e-01 0.000000000000000000e+00
 4.306076467037200928e-01 6.337398290634155273e-01 0.000000000000000000e+00
 3.872416019439697266e-01 6.030669212341308594e-01 0.000000000000000000e+00
 4.715310931205749512e-01 6.391587853431701660e-01 0.000000000000000000e+00
 6.197353005409240723e-01 6.303815841674804688e-01 0.000000000000000000e+00
 6.294826865196228027e-01 5.958124399185180664e-01 0.000000000000000000e+00
 5.458303689956665039e-01 6.383977532386779785e-01 0.000000000000000000e+00
 5.017966032028198242e-01 6.325432062149047852e-01 0.000000000000000000e+00
 5.433163046836853027e-01 6.035366058349609375e-01 0.000000000000000000e+00
 5.883969068527221680e-01 8.555197119712829590e-01 0.000000000000000000e+00
 5.203818678855895996e-01 7.870858311653137207e-01 0.000000000000000000e+00
 4.591166377067565918e-01 7.206146717071533203e-01 0.000000000000000000e+00
 4.166713953018188477e-01 6.664234995841979980e-01 0.000000000000000000e+00
 3.751381933689117432e-01 6.293588280677795410e-01 0.000000000000000000e+00
 3.370872735977172852e-01 6.093519926071166992e-01 0.000000000000000000e+00
 7.656343579292297363e-01 1.011173248291015625e+00 0.000000000000000000e+00
 7.935191392898559570e-01 1.092178344726562500e+00 0.000000000000000000e+00
 7.129074931144714355e-01 9.565837979316711426e-01 0.000000000000000000e+00
 6.537241339683532715e-01 9.070460796356201172e-01 0.000000000000000000e+00
 1.221519827842712402e+00 5.748012065887451172e-01 0.000000000000000000e+00
 7.503529191017150879e-01 5.848538279533386230e-01 0.000000000000000000e+00
 1.136893153190612793e+00 5.901294350624084473e-01 0.000000000000000000e+00
 8.207772374153137207e-01 5.908176302909851074e-01 0.000000000000000000e+00
 1.053169846534729004e+00 5.616022944450378418e-01 0.000000000000000000e+00
 8.838827610015869141e-01 5.832782983779907227e-01 0.000000000000000000e+00
 9.387427568435668945e-01 5.746628046035766602e-01 0.000000000000000000e+00
 9.923006296157836914e-01 5.613738894462585449e-01 0.000000000000000000e+00
 6.550325155258178711e-01 5.638650059700012207e-01 0.000000000000000000e+00
 4.129451513290405273e-01 5.896872282028198242e-01 0.000000000000000000e+00
 3.436307907104492188e-01 5.763052105903625488e-01 0.000000000000000000e+00
 3.562963902950286865e-01 5.530664324760437012e-01 0.000000000000000000e+00
 4.424804747104644775e-01 5.847944617271423340e-01 0.000000000000000000e+00
 5.439550876617431641e-01 5.685909390449523926e-01 0.000000000000000000e+00
 5.582045912742614746e-01 5.439370870590209961e-01 0.000000000000000000e+00
 4.759894311428070068e-01 5.804114341735839844e-01 0.000000000000000000e+00
 4.835499823093414307e-01 5.547260642051696777e-01 0.000000000000000000e+00
 5.882897377014160156e-01 9.101330637931823730e-01 0.000000000000000000e+00
 5.121253132820129395e-01 8.298333883285522461e-01 0.000000000000000000e+00
 4.475702643394470215e-01 7.672120928764343262e-01 0.000000000000000000e+00
 4.012345373630523682e-01 7.096111178398132324e-01 0.000000000000000000e+00
 3.694894909858703613e-01 6.663476228713989258e-01 0.000000000000000000e+00
 3.290802836418151855e-01 6.423361301422119141e-01 0.000000000000000000e+00
 2.985150814056396484e-01 5.883890390396118164e-01 0.000000000000000000e+00
 3.028672933578491211e-01 5.546808838844299316e-01 0.000000000000000000e+00
 7.160720229148864746e-01 1.141308069229125977e+00 0.000000000000000000e+00
 6.892461776733398438e-01 1.044907569885253906e+00 0.000000000000000000e+00
 6.386252045631408691e-01 9.730770587921142578e-01 0.000000000000000000e+00
 1.235855221748352051e+00 5.385860204696655273e-01 0.000000000000000000e+00
 1.143905043601989746e+00 5.431323647499084473e-01 0.000000000000000000e+00
 6.909126639366149902e-01 5.301803350448608398e-01 0.000000000000000000e+00
 7.631479501724243164e-01 5.327193737030029297e-01 0.000000000000000000e+00
 1.058657526969909668e+00 5.247394442558288574e-01 0.000000000000000000e+00
 8.174090981483459473e-01 5.262939333915710449e-01 0.000000000000000000e+00
 9.764097929000854492e-01 5.038781166076660156e-01 0.000000000000000000e+00
 8.674782514572143555e-01 5.174658894538879395e-01 0.000000000000000000e+00
 9.157269001007080078e-01 5.086790919303894043e-01 0.000000000000000000e+00
 5.961347222328186035e-01 5.214431881904602051e-01 0.000000000000000000e+00
 5.056117177009582520e-01 5.036846399307250977e-01 0.000000000000000000e+00
 6.332183480262756348e-01 4.897125661373138428e-01 0.000000000000000000e+00
 1.250982403755187988e+00 5.003705620765686035e-01 0.000000000000000000e+00
 3.740201592445373535e-01 5.384525656700134277e-01 0.000000000000000000e+00
 3.063405454158782959e-01 5.223152637481689453e-01 0.000000000000000000e+00
 2.667017281055450439e-01 5.015707015991210938e-01 0.000000000000000000e+00
 3.164681494235992432e-01 4.995978474617004395e-01 0.000000000000000000e+00
 3.996984958648681641e-01 5.324046015739440918e-01 0.000000000000000000e+00
 4.657013118267059326e-01 5.153148174285888672e-01 0.000000000000000000e+00
 4.204822480678558350e-01 5.211218595504760742e-01 0.000000000000000000e+00
 4.291911125183105469e-01 4.655386805534362793e-01 0.000000000000000000e+00
 5.343999266624450684e-01 9.272473454475402832e-01 0.000000000000000000e+00
 5.051326751708984375e-01 8.711668848991394043e-01 0.000000000000000000e+00
 4.287189543247222900e-01 8.112336993217468262e-01 0.000000000000000000e+00
 3.781389594078063965e-01 7.517891526222229004e-01 0.000000000000000000e+00
 3.405072987079620361e-01 6.962378621101379395e-01 0.000000000000000000e+00
[...]
<CellData>
 <DataArray Name="pos.x" type="Float32" NumberOfComponents="1" format="ascii">
 1.000231698934232361e+00
 9.972085548632279028e-01
 9.170596200241390994e-01
 9.588956625921735144e-01
 9.691655500122248190e-01
 9.263017702798795883e-01
 9.017337773563389725e-01
 8.887786529684369441e-01
 9.177515379889378266e-01
 9.613980095529420788e-01
 1.043674152265161803e+00
 9.224442733494838675e-01
 9.022561647545002117e-01
 9.898909238306689007e-01
 9.672152526933075478e-01
 1.035235922297790045e+00
 8.501096282227601497e-01
 8.473555289582018757e-01
 8.240123468803249862e-01
 8.499662277290219725e-01
 8.223876841208225263e-01
 7.675442631742764865e-01
 7.416541816745194637e-01
 8.200461382120559639e-01
 7.708128746344220517e-01
 8.932145205961322665e-01
 8.369322448294855832e-01
 9.119854166709373544e-01
 8.027878756763310308e-01
 7.380026204115358590e-01
 7.563601262961608951e-01
 6.746570574537607001e-01
 7.173558128877920437e-01
 6.866584575745258157e-01
 1.057517796035605029e+00
 1.099183190177170033e+00
 8.909866887876928265e-01
 8.410812291840779054e-01
 9.007250042832124493e-01
 9.422739404648056150e-01
 9.773066043131096725e-01
 1.004711782364122508e+00
 1.037193498197633623e+00
 7.399065304275266319e-01
 7.653840585714920541e-01
 7.523028003159369925e-01
 8.034129808940554396e-01
 7.325378974289700196e-01
 6.831011284178790666e-01
 6.576470470806260460e-01
 6.369435686805681174e-01
 6.002849812705051136e-01
 6.089870595497978156e-01
 6.545614311396342755e-01
 6.822081401893793640e-01
 8.059740807172062205e-01
 8.588893459451658607e-01
 8.645066828534320180e-01
 7.177357111759946617e-01
 7.599262296252385918e-01
 6.754356286511492558e-01
 6.373422415897541660e-01
 5.678809679569410962e-01
 6.045536596489621273e-01
 5.640109624876702421e-01
 1.053714457726439235e+00
 1.086542724577291397e+00
 1.111687159190051011e+00
 1.148702870059320480e+00
 8.586339543052264878e-01
 8.112273905196841772e-01
 8.687808307413852349e-01
 9.163305684772465876e-01
 9.477326282226808951e-01
 9.851580737454991299e-01
 9.952312285241352585e-01
 1.031305896671564248e+00
 1.049079179522637295e+00
 1.086763640604200942e+00
 7.266033637664911504e-01
 7.646956015065512480e-01
 6.508967665370892774e-01
 6.757489956327148439e-01
 6.494955048129797959e-01
 6.805849700597891294e-01
 5.784947973573907332e-01
 5.986150876099740614e-01
 5.047991826705540142e-01
 4.899050929927836751e-01
 5.006042670092547553e-01
 5.315442199560774794e-01
 5.402198190949858425e-01
 5.373259765465052684e-01
 5.712861667164990109e-01
 5.959211365938692495e-01
 5.615799240220424871e-01
 6.009536898358810442e-01
 5.375187449731683165e-01
 4.816763543909707290e-01
 4.985706304229006736e-01
 4.389927027950077942e-01
 4.484956944784152522e-01
 4.572792730297928210e-01
 8.092086813357132202e-01
 8.116683919422887916e-01
 7.598133723873129464e-01
 7.424275773093418351e-01
 6.933695371774128979e-01
 6.685681069684644706e-01
 6.268747500939881867e-01
 1.110921861182662118e+00
 1.147716656025022264e+00
 1.181383712838526501e+00
 7.589672756943458554e-01
 7.948917853330058625e-01
 8.391207116987894343e-01
 8.625665534486094410e-01
 9.077056277208855883e-01
 9.674675108291127534e-01
 9.262733187806450053e-01
 9.795028971201128476e-01
 1.025039897666208288e+00
 1.040274722235311478e+00
 1.088472224670201660e+00
 6.658396303651712422e-01
 7.061296982596679817e-01
 4.383612981854940194e-01
 4.102648020970078857e-01
 4.115068847148597997e-01
 3.854943825506483290e-01
 3.686702044922114951e-01
 3.623896036225139894e-01
 3.930170660381978043e-01
 4.423189056932509966e-01
 4.719360545540209340e-01
 5.690022194763447727e-01
 5.977243585998297526e-01
 5.772141296730569637e-01
 6.142399361915892309e-01
 5.078721323634246554e-01
 5.217120322808350696e-01
 4.734221633177628785e-01
 5.009519000688015256e-01
 5.236071173869411011e-01
 6.101369274643172469e-01
 5.403013786680537223e-01
 5.629373218522214506e-01
 4.933591696203607491e-01
 4.756896004240819820e-01
 4.359738143328670268e-01
 4.256741844191302970e-01
 3.957984720716460347e-01
 3.870996936450256665e-01
 3.519520909184013502e-01
 3.605716542175144146e-01
 3.452190161455367945e-01
 3.128232190637757482e-01
 3.278617918804526132e-01
 3.215608800297468650e-01
 7.494665628418020198e-01
 7.225960086886269451e-01
 7.329457865681977546e-01
 6.802596149889841293e-01
 6.684189385557411933e-01
 6.268796857171218262e-01
 1.200426729377521040e+00
 1.167439345654178728e+00
 7.348045095500507218e-01
 7.780926943709992605e-01
 6.987660230773794501e-01
 1.082906825807494755e+00
 1.113151905978187806e+00
 8.406896951670724816e-01
 8.004447624552457619e-01
 1.029412391422652950e+00
 1.007293403432149681e+00
 8.967012628153258058e-01
 8.562567134740296515e-01
 9.073159865573918736e-01
 9.489234288137109452e-01
 9.614791105566445895e-01
 6.031239360778147818e-01
 6.473599550691083726e-01
 4.098152605975329821e-01
 3.810872335434163927e-01
 3.176128816322925652e-01
 3.354225798005438519e-01
 3.489282335118495393e-01
 3.263683586971112827e-01
 4.393894646954056848e-01
 4.053997108359456703e-01
 5.226203327610525751e-01
 4.977354595984217478e-01
 5.533170154735841395e-01
 5.098392186753543109e-01
 4.600072207947148439e-01
 4.320567216566866264e-01
 4.565778501679968460e-01
 5.871049331002217153e-01
 5.351825703679474744e-01
 5.426074233631433819e-01
 4.819923164687986428e-01
 4.628048589053794792e-01
 4.181427289402447900e-01
 4.089812535640109381e-01
 3.704104446617311752e-01
 3.732935962403595709e-01
 3.463590281631332424e-01
 3.235087491155383410e-01
 3.047020789243026218e-01
 3.038942218561075381e-01
 2.792462261246701494e-01
 2.879689848940409358e-01
 2.720586501285746084e-01
 2.919698530084002264e-01
 2.773645290868254065e-01
 6.540146848975290084e-01
 6.696939431749543425e-01
 6.384827462141783316e-01
 6.343826662504107317e-01
 6.227621440772722616e-01
 5.827672372002677958e-01
 1.179017324358082375e+00
 1.214709786540434600e+00
 1.123348472269019016e+00
 1.090470437612466981e+00
 6.749091893822690702e-01
 7.182190532665765348e-01
 6.400885776574721797e-01
 7.771414017433686539e-01
 7.382038773756477434e-01
 1.006544185466579533e+00
 1.037357151485700291e+00
 8.279764576268724419e-01
 7.891060786080380529e-01
 9.545796519141455105e-01
 9.316335649947141695e-01
 8.376601571350016373e-01
 8.765551367242246927e-01
 8.883170334186133443e-01
 5.940483801933047481e-01
 5.515128370007102987e-01
 4.668347217269031013e-01
 5.168842416453286459e-01
 4.756839231697513326e-01
 6.209744646577585181e-01
 6.584840057726837337e-01
 5.913594508031764230e-01
 1.229120017628680950e+00
 1.192558740527425387e+00
 3.408576443149102242e-01
 3.686010945848897102e-01
 3.000987790959206980e-01
 2.835099715754609284e-01
 2.442133795305088950e-01
 2.536806953914419460e-01
 2.638967314505122896e-01
 2.494417187226797006e-01
 2.927047185031503851e-01
 3.109037089074015991e-01
 3.904650866267222464e-01
 3.609992134143853448e-01
 4.252802540953417032e-01
 4.281832101818687231e-01
 3.871179896920953212e-01
 3.842550190817476952e-01
 4.524523324898815368e-01
 3.899553597971849306e-01
 4.125547526457207792e-01
 5.222516009336929388e-01
 4.734286194013931914e-01
 4.894467459308895485e-01
 4.542197671821995297e-01
 3.858411683747275944e-01
 4.027307490532632817e-01
 3.459384285047080176e-01
 3.425523317465737350e-01
 3.047089999471912503e-01
 3.073996949150354374e-01
 2.763861049839357320e-01
 2.725840190853029976e-01
 2.556178227579156137e-01
 2.592858009668451147e-01
 2.361608036004201050e-01
 2.285438381271209796e-01
 2.444812594974505593e-01
 2.367077605675334262e-01
 2.236998762396820439e-01
 2.102344956913555218e-01
 2.137750641582737698e-01
 1.919470732742497576e-01
 2.143356298077039312e-01
 1.946818139117617308e-01
 1.857586379266341348e-01
 5.864581192716589175e-01
 5.801982000993374244e-01
 5.346350651051612335e-01
 5.647554911318545257e-01
 5.287294723159317034e-01
 5.555249283005735395e-01
 5.066298142071370414e-01
 1.101418959390308094e+00
 1.134936765466362241e+00
 1.044982267350041516e+00
 1.013798494101985748e+00
 7.145559280542380654e-01
 6.781459203355814092e-01
 7.628859092996451707e-01
 7.272732831135658715e-01
 9.611702070681245047e-01
 9.327643308994052473e-01
 7.747287910382092413e-01
 8.106326598547313189e-01
 8.649544815067343739e-01
 8.864556920680947139e-01
 8.261650875320755150e-01
 5.267348035114864935e-01
 5.586744694767399322e-01
 4.688837147036779562e-01
 5.019658672497054885e-01
 4.379271517265355129e-01
 4.026174565104669867e-01
 6.055510271913566722e-01
 5.700597959855545627e-01
 6.210756335450872134e-01
 6.561609855743868458e-01
 1.251732559420028368e+00
 1.213560701949318643e+00
 1.276873408129621801e+00
 1.244418550029341652e+00
 1.110127517595957958e+00
 1.126930023846453466e+00
 1.167410210084014688e+00
 3.024470504406848170e-01
 3.247991046776890212e-01
 2.168331750817070469e-01
 2.314257607058559651e-01
 1.861739409344037866e-01
 1.699480934392210152e-01
 1.583626599767346821e-01
 1.565820633679708973e-01
 1.672728118586243318e-01
 1.986714981018227189e-01
 2.661542853348714543e-01
 2.539351058026931285e-01
 2.323238343463372713e-01
 2.746756679487535879e-01
 2.565818932471914393e-01
 3.475850399120831713e-01
 3.147320281100137174e-01
 3.475194539306457053e-01
 3.395790914905751912e-01
 3.160214986263080728e-01
 3.351391287253149831e-01
 3.698777601812336946e-01
 4.142962452026075493e-01
 3.931143567197332156e-01
 4.366249441919629048e-01
 3.788253536031677693e-01
 3.015287973011869238e-01
 3.071571422578989186e-01
 3.332646923095410330e-01
 2.654869013072428396e-01
 2.691155507225136967e-01
 2.345383024243436199e-01
 2.406974657549771635e-01
 2.254331470919784530e-01
 2.143148759876726261e-01
 2.156264603962059212e-01
 1.943213675665013962e-01
 2.017379158398018291e-01
 1.857297020212242133e-01
 1.920656843649112266e-01
 1.716730795222004280e-01
 1.750950368984572070e-01
 1.604207873762475978e-01
 1.420728076150727104e-01
 1.314995012410156150e-01
 1.391567325115370402e-01
 1.267899517104407459e-01
 1.425930336497450990e-01
 1.284456562398850477e-01
 1.131604974842129185e-01
 1.100584283254725931e-01
 5.002956657561319354e-01
 5.057696460199062605e-01
 4.444497860806073675e-01
 4.670552859935408474e-01
 4.196544811440297007e-01
 4.512082414397273200e-01
 4.079988274091948530e-01
 3.700921003027495826e-01
 4.015702304598542383e-01
 4.366655855544068210e-01
 1.051529840294743723e+00
 1.019902396124881205e+00
 9.394034777285414917e-01
 9.669518935372423130e-01
 1.033618619403622318e+00
 1.078590264442620628e+00
 6.661884545115421830e-01
 7.008907443320646635e-01
 7.077333401776902955e-01
 7.459587606977556851e-01
 8.725924226903943870e-01
 8.971343321821217964e-01
 7.503834380442437890e-01
 8.127656059856677162e-01
 7.815600614364361931e-01
 8.376917305826262483e-01
 5.494933209172182531e-01
 5.133390581466225067e-01
 4.594601749690747083e-01
 4.908722503016793581e-01
 5.614795297109396177e-01
 5.975706111330064685e-01
 6.047510050086627453e-01
 6.382834963578990495e-01
 1.210456197060061578e+00
 1.171619714585444783e+00
 1.217563870020629047e+00
 1.257443344488468062e+00
 1.300230549543262448e+00
 1.266736620419954162e+00
 1.082477393174418490e+00
 1.135026657079681645e+00
 1.294554536389773025e+00
 1.316408544340024411e+00
 2.786249772535122626e-01
 2.609206713292562818e-01
 1.247961278510906907e-01
 1.124423778364149057e-01
 1.397104214000199907e-01
 1.132092939754841404e-01
 1.506503535717167441e-01
 1.651183992839282133e-01
 1.938623000806001251e-01
 2.129220507009657870e-01
 1.765350487578884187e-01
 2.108733408386051777e-01
 2.306983454665699484e-01
 2.327238543963289497e-01
 2.626000005204152110e-01
 2.800233227899500688e-01
 2.733230652967683638e-01
 2.589291754912903532e-01
 3.063553707110636681e-01
 3.166170565633316669e-01
 3.456151546990988699e-01
 3.314106934185177544e-01
 2.993115545440708791e-01
 3.323891010625183440e-01
 3.070319206077654628e-01
 2.554553481648031421e-01
 2.588460787263011098e-01
 2.186063495330249074e-01
 2.230095577187526101e-01
 1.866776823244588324e-01
 1.945777776147790128e-01
 1.722638352605830037e-01
 1.858417703028431012e-01
 1.705241133247175078e-01
 1.651889517182776046e-01
 1.570662531519760319e-01
 1.492772127287697592e-01
 1.404576139270176938e-01
 1.487284579535550211e-01
 1.338024355686369682e-01
 1.031268727173542815e-01
 1.131955044277212497e-01
 9.613264284114962643e-02
 9.762780396171688579e-02
 8.212746755158069345e-02
 8.601962826904503701e-02
 9.855404412510482270e-02
 8.615917974857863204e-02
 8.446602344612146041e-02
 4.162665223375721091e-01
 3.858199789917524103e-01
 3.636653594706308890e-01
 3.409560759913699557e-01
 3.405535592460755545e-01
 3.071699374856102227e-01
 2.964975931950966093e-01
 4.050824287759236531e-01
 4.366036949360938557e-01
 3.548829926355791531e-01
 3.828721365552993916e-01
 9.091844798347339385e-01
 8.852108268504498279e-01
 9.486564009751066173e-01
 9.836956826716244384e-01
 1.043245261469886609e+00
 9.702318178449079733e-01
 9.961426559787301960e-01
 6.431565809619513852e-01
 6.779041349612202616e-01
 7.181178864641313275e-01
 6.838640039011729677e-01
 7.286349781078770294e-01
 7.675225241521190789e-01
 8.267151712747349279e-01
 8.496923580508312090e-01
 7.877515093934591706e-01
 5.015840403107337808e-01
 5.360370569493984050e-01
 4.543615243736642828e-01
 4.799664855523603779e-01
 4.371615235740476391e-01
 5.753713330133146675e-01
 5.427484663761171779e-01
 6.139773694214709643e-01
 5.797246128220705508e-01
 1.259035768369907826e+00
 1.239364596383684569e+00
 1.141296391106075836e+00
 1.184997121572406442e+00
 1.204875242140742708e+00
 1.180801988971920791e+00
 1.057254143147862147e+00
 1.102756008878788219e+00
 1.304792838870785898e+00
 1.273423882574871824e+00
 1.249520820024245360e+00
 1.325683780705851023e+00
 7.417141556857856366e-02
 7.346308374333852809e-02
 8.325479322500389801e-02
 9.635798942677013812e-02
 1.057868823940620873e-01
 1.203366871070725708e-01
 2.296956325421679324e-01
 2.175237923423376518e-01
 1.443443469156689696e-01
 1.289449739999540823e-01
 1.692330636072739980e-01
 1.515104074772660459e-01
 1.903698355582185420e-01
 1.741111420186036984e-01
 1.949947781321920148e-01
 2.138754693915741190e-01
 2.256856900711616820e-01
 2.166333663666333564e-01
 2.405311094083031342e-01
 2.639773229183093872e-01
 2.930931343446037673e-01
 3.035865473052926644e-01
 3.363783074605009027e-01
 2.025114406610618867e-01
 2.395425097852209861e-01
 2.263889775524900727e-01
 2.234558067782035362e-01
 1.750003695470312703e-01
 1.764590962307119038e-01
 1.402216418539466991e-01
 1.474957464456465583e-01
 1.416800516099044061e-01
 1.385204107098927662e-01
 1.195477749939143353e-01
 1.213539681996906455e-01
 1.220494554944867166e-01
 1.166278150820496268e-01
 1.038720186018429331e-01
 1.144911366111676515e-01
 1.021550494967892603e-01
 8.112600583790398334e-02
 7.505921632052670045e-02
 7.004646973451539305e-02
 6.317412590090153157e-02
 6.806556615807783650e-02
 5.508949334473242643e-02
 5.819098278971696070e-02
 5.732312080171270835e-02
 5.975491033331872121e-02
 5.128329581984226310e-02
 6.063505377687602310e-02
 4.708466689013041107e-02
 4.389692094147046308e-02
 1.661004599816481020e-01
 1.722120944613304561e-01
 2.826705682031638855e-01
 5.418908096533339713e-02
 -7.807856948196780777e-01
 -8.630132905371704632e-01
 -6.895286504975400854e-01
 -4.858026315524449079e-01
 -5.906813356740322485e-01
 -9.349146593451672649e-01
 -9.507206358789382916e-02
 -1.492620134576876645e-01
 -2.611724626818723305e-01
 -4.130086411980906647e-01
 2.374365872986932968e-01
 2.095976228563070087e-01
 5.970201822516987139e-02
 1.007504571287707179e-01
 1.740357135472353767e-01
 2.210597802548913415e-01
 1.843347863727501368e-01
 3.885124388994768974e-01
 4.112805597580550532e-01
 3.643194586538939794e-01
 3.401744711346381123e-01
 4.106030618790286191e-01
 4.344016353960394317e-01
 8.423367571004135579e-01
 8.689380366703689518e-01
 9.002672906050706025e-01
 9.262753469187270383e-01
 1.022884720176850282e+00
 9.684381906276527952e-01
 9.811713731477974543e-01
 9.290001242643871615e-01
 6.530699717466682541e-01
 6.179308912662350162e-01
 7.005885337396137169e-01
 6.592774099413633015e-01
 7.068012872747950759e-01
 7.758567028359740769e-01
 7.410326350091992476e-01
 8.074647637668320721e-01
 4.865141116706385715e-01
 5.148430758557308584e-01
 4.610004442223729626e-01
 4.344929291264698068e-01
 5.489249326003676765e-01
 5.166662622712255848e-01
 5.514782752739771921e-01
 5.862314773404440071e-01
 1.183021428674245312e+00
 1.176721396297452538e+00
 1.217422258486203113e+00
 1.136810583758422366e+00
 1.102465334131620400e+00
 1.134754829980511026e+00
 1.029678963537856484e+00
 1.063757711761700753e+00
 1.251539724721906666e+00
 1.217234111516018125e+00
 1.307415703583265199e+00
 1.264640603895234916e+00
 1.326100305220279774e+00
 1.303791160242682379e+00
 1.325006746026508253e+00
 9.692897633260343371e-01
 9.561576427380730214e-01
 1.001097737096765083e+00
 6.717764994854923122e-02
 5.805784281616887393e-02
 7.954657039092176418e-02
 8.665310676688882385e-02
 9.979022256826293458e-02
 1.056849392266284715e-01
 1.202898859453091496e-01
 1.887650682008605030e-01
 1.820562171413086239e-01
 1.249614087141783375e-01
 1.407825573304203604e-01
 1.436773286125272442e-01
 1.592832571707026024e-01
 1.626033897194340827e-01
 1.772121834989885958e-01
 1.743127805221237059e-01
 1.958964604959821942e-01
 2.381952334169147589e-01
 1.960027940052186946e-01
 2.144038238844815369e-01
 2.872824814983350739e-01
 2.585852103975822547e-01
 3.106860734031992588e-01
 3.484524573985823409e-02
 4.500080777271473625e-02
 3.855052282627861177e-02
 3.000965528726874318e-02
 4.233351518576162348e-02
 1.933189181483545294e-02
 2.150018968047183454e-02
 1.018238151025497862e-01
 1.156948849039776822e-01
 1.465861796798940964e-01
 1.366205382565615911e-01
 9.787738829962573661e-02
 9.281755801855999521e-02
 8.576897611100148255e-02
 7.137269400841277089e-02
 8.759417468439112398e-02
 8.916068690202050284e-02
 6.847249398523239106e-02
 7.873507346712946275e-02
 6.787886996211477120e-02
 6.832514781756889033e-02
 4.556536060403103966e-02
 4.963273611450569334e-02
 2.420123208618564850e-02
 3.742415287740967489e-02
 2.924095036782248247e-02
 3.431076667998395752e-02
 3.058335541245501762e-02
 2.797373677958981883e-02
 2.213470995343256795e-02
 -8.872356773099053795e-01
 -1.086171717299459161e+00
 -1.134199583156371594e+00
 -1.169056672374572559e+00
 -1.190193267834475765e+00
 -1.679816519138919995e-01
 -7.571829077998712410e-02
 -6.717334833184921417e-01
 -4.655435644583993948e-01
 -3.302170191642423980e-01
 -1.143624410644780570e-01
 -2.614419069022128062e-03
 8.156728485712211318e-02
 -4.134465417744305656e-03
 5.995145009600563735e-02
 3.646779380892370970e-01
 3.881934204557935808e-01
 2.991796911025839667e-01
 3.420333222425289699e-01
 3.142297122651593333e-01
 4.047812155969222059e-01
 3.822802804432567925e-01
 8.529467629825967512e-01
 8.123014015374421248e-01
 8.673413543076898824e-01
 9.053580016821389798e-01
 9.197823376356802916e-01
 5.918116192574248702e-01
 6.297184713779110377e-01
 6.719361192433375152e-01
 6.361644271447041143e-01
 7.221373296869947334e-01
 6.785074364645757861e-01
 7.367941952423796570e-01
 7.833349454013548430e-01
 4.607797243663382947e-01
 4.881165782300986300e-01
 4.353373540847229606e-01
 4.058463604112099166e-01
 4.898847559191386036e-01
 5.209877826338750184e-01
 5.251137622818889961e-01
 5.611843968389721438e-01
 1.153500313795958299e+00
 1.179441173772506568e+00
 1.117583007335415823e+00
 1.105137555896761326e+00
 1.068197086450485500e+00
 1.051736068027548487e+00
 1.014073575244541559e+00
 1.240290638081449570e+00
 1.195847307086210121e+00
 1.166773095471081989e+00
 1.260756592791882680e+00
 1.321950376808929128e+00
 1.299639343048602846e+00
 1.237520615640875121e+00
 1.255187780113769636e+00
 1.319997972507255701e+00
 1.294628895309112515e+00
 9.144713231730166036e-01
 9.476118312541462751e-01
 8.997739501425119357e-01
 9.611772617210898595e-01