TITLE = "Visualization of the solution"
VARIABLES = "x","y","z","Density","Momentum_x","Momentum_y","Momentum_z","Energy","Pressure","Temperature","Mach","Pressure_Coefficient"
ZONE NODES= 6763, ELEMENTS= 13423, DATAPACKING=POINT, ZONETYPE=FEQUADRILATERAL
5.453288e-01	7.569636e-01	3.080354e-02	6.366018e-01	9.132855e-01	-1.371055e-01	8.540611e-02	2.033402e+00	5.431190e-01	8.417761e-01	1.333060e+00	-9.407937e-01	
8.198141e-01	1.102527e+00	3.158067e-02	6.344542e-01	9.230519e-01	-1.406717e-01	3.514787e-02	2.030744e+00	5.370852e-01	8.352420e-01	1.352800e+00	-9.528614e-01	
8.307504e-01	1.112612e+00	3.161605e-02	6.057859e-01	8.974955e-01	-1.445726e-01	2.002734e-02	1.946263e+00	5.055373e-01	8.233860e-01	1.388674e+00	-1.015957e+00	
6.024421e-01	8.214075e-01	3.177723e-02	6.362623e-01	9.094627e-01	-1.337368e-01	7.028277e-02	2.030226e+00	5.449214e-01	8.450203e-01	1.323266e+00	-9.371889e-01	
5.813984e-01	7.976857e-01	3.150425e-02	6.486412e-01	9.415023e-01	-1.476590e-01	7.530249e-02	2.076456e+00	5.487931e-01	8.347829e-01	1.354187e+00	-9.294456e-01	
5.938305e-01	8.190625e-01	3.131999e-02	6.418228e-01	9.288282e-01	-1.436450e-01	7.430137e-02	2.053313e+00	5.443401e-01	8.368056e-01	1.348075e+00	-9.383517e-01	
5.704691e-01	7.866436e-01	3.126158e-02	6.505583e-01	9.372022e-01	-1.438007e-01	8.697429e-02	2.079799e+00	5.532081e-01	8.390189e-01	1.341388e+00	-9.206157e-01	
5.774366e-01	8.024993e-01	3.095598e-02	6.420419e-01	9.304660e-01	-1.459196e-01	8.446997e-02	2.055062e+00	5.434776e-01	8.351946e-01	1.352943e+00	-9.400766e-01	
5.187177e-01	7.191688e-01	3.068029e-02	6.378491e-01	9.261946e-01	-1.469500e-01	8.928928e-02	2.042727e+00	5.388422e-01	8.335145e-01	1.358022e+00	-9.493473e-01	
5.394571e-01	7.583120e-01	3.022716e-02	6.269802e-01	9.163388e-01	-1.471966e-01	8.521789e-02	2.010469e+00	5.271115e-01	8.295032e-01	1.370153e+00	-9.728088e-01	
5.844041e-01	8.183551e-01	3.065039e-02	6.333859e-01	9.225796e-01	-1.466635e-01	8.378132e-02	2.029484e+00	5.340220e-01	8.318791e-01	1.362967e+00	-9.589879e-01	
5.376259e-01	7.370504e-01	3.127652e-02	6.515680e-01	9.349356e-01	-1.429135e-01	8.920518e-02	2.081510e+00	5.555841e-01	8.413167e-01	1.334448e+00	-9.158636e-01	
5.049525e-01	6.935166e-01	3.100365e-02	6.493372e-01	9.406377e-01	-1.481512e-01	9.236237e-02	2.078555e+00	5.495104e-01	8.349780e-01	1.353598e+00	-9.280111e-01	
4.456552e-01	6.044439e-01	3.107793e-02	6.208134e-01	9.258957e-01	-1.636553e-01	8.902564e-02	1.999988e+00	5.126330e-01	8.147323e-01	1.414922e+00	-1.001766e+00	
4.510680e-01	6.168166e-01	3.081873e-02	6.279522e-01	9.069436e-01	-1.419283e-01	9.460812e-02	2.009113e+00	5.324013e-01	8.365307e-01	1.348905e+00	-9.622293e-01	
4.281500e-01	5.834075e-01	3.076093e-02	6.346031e-01	9.079546e-01	-1.399439e-01	9.995961e-02	2.026831e+00	5.416011e-01	8.420673e-01	1.332181e+00	-9.438296e-01	
4.215561e-01	5.709078e-01	3.092007e-02	6.545402e-01	9.490884e-01	-1.506967e-01	1.123067e-01	2.096538e+00	5.525852e-01	8.329758e-01	1.359650e+00	-9.218613e-01	
4.658261e-01	6.339862e-01	3.112042e-02	6.386074e-01	9.386128e-01	-1.570536e-01	9.015230e-02	2.050586e+00	5.340530e-01	8.251252e-01	1.383405e+00	-9.589258e-01	
5.635016e-01	7.707878e-01	3.156717e-02	6.452725e-01	9.167555e-01	-1.349718e-01	8.531189e-02	2.057149e+00	5.544656e-01	8.478146e-01	1.314831e+00	-9.181006e-01	
5.470800e-01	7.459913e-01	3.157464e-02	6.645345e-01	9.584559e-01	-1.498703e-01	9.574418e-02	2.125406e+00	5.641679e-01	8.376455e-01	1.345537e+00	-8.986960e-01	
5.689662e-01	7.763089e-01	3.168850e-02	6.407831e-01	9.318346e-01	-1.469773e-01	8.289444e-02	2.052392e+00	5.410525e-01	8.331013e-01	1.359271e+00	-9.449268e-01	
5.937254e-01	8.048170e-01	3.198161e-02	6.153001e-01	9.085019e-01	-1.511117e-01	5.543952e-02	1.976437e+00	5.138697e-01	8.240156e-01	1.386766e+00	-9.992924e-01	
5.146877e-01	7.027849e-01	3.130692e-02	6.449828e-01	9.155711e-01	-1.321506e-01	8.304963e-02	2.055666e+00	5.547765e-01	8.486709e-01	1.312247e+00	-9.174788e-01	
4.952258e-01	6.735018e-01	3.134535e-02	6.441176e-01	9.332641e-01	-1.460706e-01	8.585401e-02	2.061640e+00	5.453003e-01	8.352953e-01	1.352639e+00	-9.364311e-01	
5.241527e-01	7.125212e-01	3.155832e-02	6.544850e-01	9.495183e-01	-1.513857e-01	1.003403e-01	2.096064e+00	5.528361e-01	8.334242e-01	1.358295e+00	-9.213597e-01	
4.639417e-01	6.278088e-01	3.132449e-02	6.372414e-01	9.358506e-01	-1.541049e-01	8.121933e-02	2.045365e+00	5.337448e-01	8.264168e-01	1.379494e+00	-9.595422e-01	
4.620573e-01	6.216314e-01	3.152857e-02	7.854816e-01	1.012699e+00	-9.669023e-02	9.000219e-02	2.460468e+00	7.186153e-01	9.026719e-01	1.148851e+00	-5.898011e-01	
8.072801e-01	1.083416e+00	3.175501e-02	6.261156e-01	9.256002e-01	-1.477807e-01	2.814798e-02	2.010698e+00	5.233830e-01	8.247731e-01	1.384472e+00	-9.802659e-01	
7.793994e-01	1.046494e+00	3.198382e-02	7.201765e-01	9.550136e-01	-8.943816e-02	3.884737e-02	2.264786e+00	6.499883e-01	8.905043e-01	1.185838e+00	-7.270551e-01	
4.407178e-01	5.927533e-01	3.133900e-02	7.896511e-01	9.763668e-01	-6.230081e-02	9.695436e-02	2.457692e+00	7.382665e-01	9.224596e-01	1.088251e+00	-5.504988e-01	
6.184285e-01	8.510569e-01	3.143886e-02	6.412067e-01	9.303549e-01	-1.461394e-01	6.866130e-02	2.052335e+00	5.428237e-01	8.352763e-01	1.352696e+00	-9.413844e-01	
6.062626e-01	8.404393e-01	3.113573e-02	6.360348e-01	9.220373e-01	-1.433726e-01	7.432627e-02	2.035540e+00	5.386863e-01	8.356501e-01	1.351566e+00	-9.496592e-01	
7.632909e-01	1.028244e+00	3.193517e-02	6.340609e-01	9.245793e-01	-1.456789e-01	3.900286e-02	2.030753e+00	5.354852e-01	8.332704e-01	1.358760e+00	-9.560613e-01	
7.095349e-01	9.598619e-01	3.199115e-02	5.962956e-01	8.941968e-01	-1.596981e-01	3.967072e-02	1.921898e+00	4.914922e-01	8.132508e-01	1.419422e+00	-1.044047e+00	
6.903105e-01	9.341660e-01	3.206827e-02	6.267814e-01	9.319991e-01	-1.519905e-01	3.438525e-02	2.015495e+00	5.212802e-01	8.205869e-01	1.397157e+00	-9.844713e-01	
6.857992e-01	9.298772e-01	3.201397e-02	6.250402e-01	9.320758e-01	-1.463242e-01	6.890287e-02	2.011490e+00	5.182387e-01	8.180716e-01	1.404786e+00	-9.905543e-01	
7.350126e-01	9.962170e-01	3.182411e-02	6.338477e-01	9.113715e-01	-1.341605e-01	4.827534e-02	2.024193e+00	5.411814e-01	8.424176e-01	1.331124e+00	-9.446689e-01	
6.602929e-01	9.012100e-01	3.176494e-02	6.500092e-01	9.384766e-01	-1.446002e-01	6.491982e-02	2.078220e+00	5.525651e-01	8.387517e-01	1.342195e+00	-9.219016e-01	
6.255149e-01	8.488202e-01	3.201065e-02	6.286273e-01	9.299618e-01	-1.557510e-01	5.915980e-02	2.020161e+00	5.240848e-01	8.225793e-01	1.391118e+00	-9.788621e-01	
6.464116e-01	8.776378e-01	3.198208e-02	6.242535e-01	9.023436e-01	-1.438386e-01	5.874945e-02	1.996530e+00	5.300143e-01	8.377146e-01	1.345328e+00	-9.670031e-01	
6.728299e-01	9.124095e-01	3.202026e-02	6.471697e-01	9.327832e-01	-1.395732e-01	6.223446e-02	2.068142e+00	5.511506e-01	8.402752e-01	1.337593e+00	-9.247305e-01	
8.641412e-01	1.155930e+00	3.127543e-02	6.486052e-01	9.400547e-01	-1.330164e-01	2.094787e-02	2.073705e+00	5.513977e-01	8.387913e-01	1.342075e+00	-9.242365e-01	
8.434366e-01	1.131953e+00	3.140466e-02	6.196882e-01	9.152231e-01	-1.506385e-01	1.775588e-02	1.989880e+00	5.181866e-01	8.250539e-01	1.383621e+00	-9.906587e-01	
8.575267e-01	1.154186e+00	3.114849e-02	6.196439e-01	9.066189e-01	-1.418749e-01	2.483863e-02	1.985631e+00	5.222565e-01	8.315935e-01	1.363830e+00	-9.825188e-01	
8.747311e-01	1.175761e+00	3.105236e-02	6.326846e-01	9.316369e-01	-1.385501e-01	2.223015e-02	2.029472e+00	5.311949e-01	8.283923e-01	1.373515e+00	-9.646420e-01	
7.880109e-01	1.063281e+00	3.175997e-02	6.457046e-01	9.374821e-01	-1.414294e-01	4.056525e-02	2.065921e+00	5.474420e-01	8.365149e-01	1.348953e+00	-9.321477e-01	
8.117494e-01	1.095816e+00	3.153390e-02	6.382846e-01	9.183303e-01	-1.348027e-01	3.000227e-02	2.038255e+00	5.450770e-01	8.425835e-01	1.330622e+00	-9.368777e-01	
8.308300e-01	1.121262e+00	3.137222e-02	6.340590e-01	9.237704e-01	-1.361104e-01	3.054703e-02	2.029671e+00	5.365593e-01	8.349442e-01	1.353700e+00	-9.539132e-01	
8.307107e-01	1.108287e+00	3.173797e-02	7.598482e-01	9.786997e-01	-6.338696e-02	2.171260e-02	2.377597e+00	6.977402e-01	9.060170e-01	1.138651e+00	-6.315515e-01	
8.160277e-01	1.090570e+00	3.180931e-02	7.416913e-01	1.033450e+00	-1.278983e-01	2.448052e-02	2.353157e+00	6.486943e-01	8.629513e-01	1.269155e+00	-7.296433e-01	
8.490361e-01	1.131174e+00	3.157625e-02	7.557135e-01	9.883505e-01	-7.867543e-02	3.182063e-02	2.370735e+00	6.878675e-01	8.980843e-01	1.162817e+00	-6.512967e-01	
8.641470e-01	1.145634e+00	3.156835e-02	8.347418e-01	9.991574e-01	-3.151708e-02	4.114318e-02	2.584492e+00	7.939619e-01	9.384626e-01	1.038670e+00	-4.391079e-01	
8.707557e-01	1.157673e+00	3.140237e-02	8.382049e-01	1.017870e+00	-2.472515e-02	4.564003e-02	2.600230e+00	7.922403e-01	9.325587e-01	1.057033e+00	-4.425512e-01	
8.830279e-01	1.188975e+00	3.093569e-02	6.337129e-01	9.247575e-01	-1.364168e-01	2.341630e-02	2.029121e+00	5.357082e-01	8.340751e-01	1.356327e+00	-9.556155e-01	
8.835062e-01	1.175068e+00	3.129597e-02	7.506511e-01	9.870669e-01	-8.033143e-02	2.504253e-02	2.356849e+00	6.812649e-01	8.954623e-01	1.170787e+00	-6.645020e-01	
8.832670e-01	1.182022e+00	3.111583e-02	6.233071e-01	9.119895e-01	-1.457207e-01	2.428434e-02	1.997565e+00	5.251485e-01	8.312842e-01	1.364766e+00	-9.767348e-01	
8.968924e-01	1.200740e+00	3.095038e-02	6.180686e-01	9.034949e-01	-1.285751e-01	1.827125e-02	1.979368e+00	5.221435e-01	8.335327e-01	1.357967e+00	-9.827448e-01	
8.351405e-01	6.320949e-01	3.382901e-02	7.010987e-01	9.556663e-01	-8.166170e-02	-5.993156e-02	2.215015e+00	6.225455e-01	8.761155e-01	1.229400e+00	-7.819409e-01	
8.486400e-01	6.896973e-01	3.374362e-02	6.994685e-01	9.619414e-01	-8.693847e-02	-6.634720e-02	2.213545e+00	6.174171e-01	8.709232e-01	1.245088e+00	-7.921977e-01	
8.424809e-01	6.505206e-01	3.361359e-02	7.253318e-01	1.001448e+00	-8.859756e-02	-5.681982e-02	2.296592e+00	6.390470e-01	8.692917e-01	1.250015e+00	-7.489378e-01	
8.292531e-01	5.953242e-01	3.371360e-02	7.020476e-01	9.511844e-01	-7.817712e-02	-6.609951e-02	2.215809e+00	6.255913e-01	8.792120e-01	1.220037e+00	-7.758492e-01	
8.216049e-01	5.742776e-01	3.391383e-02	7.170971e-01	9.990719e-01	-8.198290e-02	-6.508310e-02	2.274108e+00	6.282025e-01	8.643529e-01	1.264925e+00	-7.706268e-01	
7.914347e-01	4.257610e-01	3.358682e-02	7.253395e-01	9.930079e-01	-6.878555e-02	-7.787251e-02	2.293241e+00	6.424291e-01	8.738831e-01	1.236146e+00	-7.421735e-01	
4.919768e-01	6.805829e-01	3.063419e-02	6.255358e-01	9.104386e-01	-1.426798e-01	8.393246e-02	2.003940e+00	5.277943e-01	8.324957e-01	1.361102e+00	-9.714431e-01	
4.413379e-01	6.084070e-01	3.044265e-02	6.405948e-01	9.297895e-01	-1.497178e-01	1.063824e-01	2.052230e+00	5.404522e-01	8.324217e-01	1.361326e+00	-9.461273e-01	
4.733637e-01	6.586958e-01	3.030412e-02	6.249959e-01	9.224833e-01	-1.525596e-01	9.248779e-02	2.008606e+00	5.209432e-01	8.223992e-01	1.391664e+00	-9.851453e-01	
4.677135e-01	6.584059e-01	2.980609e-02	6.301439e-01	9.144397e-01	-1.433589e-01	1.062419e-01	2.018492e+00	5.318918e-01	8.328237e-01	1.360110e+00	-9.632481e-01	
4.652370e-01	6.586249e-01	2.952383e-02	6.384541e-01	9.303308e-01	-1.490966e-01	1.141167e-01	2.047278e+00	5.367398e-01	8.294755e-01	1.370237e+00	-9.535522e-01	
6.305943e-01	8.616746e-01	3.174199e-02	6.423527e-01	9.276994e-01	-1.420290e-01	6.529892e-02	2.053833e+00	5.459642e-01	8.386100e-01	1.342623e+00	-9.351034e-01	
4.998095e-01	7.012871e-01	3.008405e-02	6.178893e-01	9.118855e-01	-1.522422e-01	8.562455e-02	1.985582e+00	5.152042e-01	8.226936e-01	1.390771e+00	-9.966235e-01	
5.465877e-01	7.825917e-01	2.945792e-02	6.162561e-01	9.094317e-01	-1.502973e-01	8.672979e-02	1.980261e+00	5.139156e-01	8.228109e-01	1.390416e+00	-9.992005e-01	
5.137445e-01	7.329985e-01	2.947287e-02	6.081774e-01	9.005417e-01	-1.505403e-01	8.619252e-02	1.955761e+00	5.057183e-01	8.204419e-01	1.397597e+00	-1.015595e+00	
4.989433e-01	7.151196e-01	2.921419e-02	6.184523e-01	9.111723e-01	-1.515759e-01	1.047136e-01	1.987521e+00	5.155444e-01	8.224875e-01	1.391396e+00	-9.959429e-01	
6.311269e-01	8.831928e-01	3.076722e-02	6.336406e-01	9.221455e-01	-1.465749e-01	7.499492e-02	2.029639e+00	5.348972e-01	8.329075e-01	1.359857e+00	-9.572374e-01	
5.983391e-01	8.500665e-01	3.003921e-02	6.222249e-01	9.093576e-01	-1.454093e-01	7.915291e-02	1.994959e+00	5.233753e-01	8.299181e-01	1.368898e+00	-9.802813e-01	
6.559912e-01	9.259464e-01	3.039871e-02	6.280582e-01	9.181174e-01	-1.464088e-01	6.960095e-02	2.013385e+00	5.285582e-01	8.303521e-01	1.367585e+00	-9.699155e-01	
5.794309e-01	8.321848e-01	2.944297e-02	6.220332e-01	9.138969e-01	-1.505410e-01	8.938859e-02	1.997111e+00	5.204474e-01	8.255296e-01	1.382180e+00	-9.861371e-01	
4.083683e-01	5.459083e-01	3.123835e-02	8.770510e-01	1.029140e+00	-3.406006e-02	1.056615e-01	2.710017e+00	8.396757e-01	9.446179e-01	1.019423e+00	-3.476804e-01	
3.630161e-01	4.845045e-01	3.062273e-02	6.867937e-01	9.170547e-01	-1.035957e-01	9.789107e-02	2.164630e+00	6.150332e-01	8.835715e-01	1.206846e+00	-7.969653e-01	
4.545257e-01	6.334065e-01	3.012437e-02	6.319608e-01	9.174207e-01	-1.474276e-01	1.033816e-01	2.024546e+00	5.331924e-01	8.324597e-01	1.361211e+00	-9.606470e-01	
4.339083e-01	6.090639e-01	2.959586e-02	6.221764e-01	9.036439e-01	-1.457916e-01	1.083486e-01	1.993738e+00	5.243998e-01	8.316076e-01	1.363788e+00	-9.782321e-01	
4.182439e-01	5.842834e-01	2.963188e-02	6.238344e-01	9.084281e-01	-1.453158e-01	1.093781e-01	2.000017e+00	5.248307e-01	8.300789e-01	1.368412e+00	-9.773704e-01	
4.142484e-01	5.700364e-01	3.019280e-02	6.425888e-01	9.351920e-01	-1.516356e-01	1.122619e-01	2.060027e+00	5.407255e-01	8.302581e-01	1.367870e+00	-9.455809e-01	
4.149622e-01	5.584080e-01	3.107921e-02	6.022033e-01	8.793130e-01	-1.451630e-01	8.729104e-02	1.931155e+00	5.061454e-01	8.292808e-01	1.370826e+00	-1.014741e+00	
3.898838e-01	5.230398e-01	3.083721e-02	6.531807e-01	9.313182e-01	-1.435362e-01	1.044993e-01	2.084894e+00	5.587272e-01	8.439872e-01	1.326384e+00	-9.095775e-01	
4.101265e-01	5.598661e-01	3.045634e-02	6.243993e-01	8.921361e-01	-1.368303e-01	9.956787e-02	1.993744e+00	5.333901e-01	8.428532e-01	1.329808e+00	-9.602516e-01	
3.137941e-01	4.158735e-01	3.004909e-02	6.413051e-01	9.151945e-01	-1.404330e-01	1.134125e-01	2.047807e+00	5.477499e-01	8.427272e-01	1.330189e+00	-9.315320e-01	
3.915519e-01	5.285329e-01	3.063470e-02	6.296919e-01	8.968546e-01	-1.356800e-01	1.032683e-01	2.009473e+00	5.390815e-01	8.446870e-01	1.324272e+00	-9.488687e-01	
3.967519e-01	5.383539e-01	3.051173e-02	6.520118e-01	9.477090e-01	-1.531828e-01	1.150401e-01	2.089750e+00	5.491407e-01	8.309935e-01	1.365645e+00	-9.287504e-01	
3.419681e-01	4.568672e-01	3.029289e-02	6.290057e-01	9.464146e-01	-1.729417e-01	1.175237e-01	2.031770e+00	5.140078e-01	8.062774e-01	1.440635e+00	-9.990162e-01	
3.605395e-01	4.847235e-01	3.034047e-02	6.208084e-01	9.073064e-01	-1.495266e-01	1.102108e-01	1.992087e+00	5.205144e-01	8.272649e-01	1.376927e+00	-9.860030e-01	
3.487773e-01	4.710143e-01	3.003442e-02	6.230447e-01	8.904369e-01	-1.337791e-01	1.181891e-01	1.990284e+00	5.313675e-01	8.414828e-01	1.333946e+00	-9.642967e-01	
4.695949e-01	6.463410e-01	3.071227e-02	6.280793e-01	9.116549e-01	-1.432103e-01	8.816704e-02	2.011205e+00	5.308231e-01	8.338824e-01	1.356909e+00	-9.653855e-01	
4.823671e-01	6.596841e-01	3.103922e-02	6.345884e-01	9.137494e-01	-1.385024e-01	8.776150e-02	2.028564e+00	5.398091e-01	8.393005e-01	1.340537e+00	-9.474136e-01	
2.669296e-01	3.480335e-01	2.955335e-02	5.857871e-01	9.131875e-01	-1.840389e-01	1.372725e-01	1.909694e+00	4.611651e-01	7.767585e-01	1.531116e+00	-1.104702e+00	
8.509122e-01	1.152443e+00	3.102155e-02	6.302999e-01	9.209171e-01	-1.413220e-01	2.593818e-02	2.019052e+00	5.319638e-01	8.327301e-01	1.360393e+00	-9.631042e-01	
8.232834e-01	1.152541e+00	3.007667e-02	6.369812e-01	9.239664e-01	-1.386331e-01	5.062915e-02	2.037819e+00	5.402382e-01	8.368125e-01	1.348054e+00	-9.465554e-01	
8.376981e-01	1.167553e+00	3.021715e-02	6.358848e-01	9.265241e-01	-1.396774e-01	4.463702e-02	2.035988e+00	5.376316e-01	8.342107e-01	1.355917e+00	-9.517686e-01	
6.930633e-01	9.857148e-01	3.001262e-02	6.247059e-01	9.151181e-01	-1.461370e-01	6.503546e-02	2.003338e+00	5.250368e-01	8.292464e-01	1.370930e+00	-9.769582e-01	
7.749581e-01	1.097791e+00	2.993071e-02	6.238535e-01	9.163395e-01	-1.441301e-01	5.015514e-02	2.001130e+00	5.237951e-01	8.284156e-01	1.373444e+00	-9.794415e-01	
7.301355e-01	1.045483e+00	2.962652e-02	6.229597e-01	9.125415e-01	-1.447035e-01	6.411486e-02	1.997641e+00	5.236671e-01	8.294014e-01	1.370461e+00	-9.796975e-01	
8.556180e-01	7.301726e-01	3.383102e-02	6.951588e-01	9.646877e-01	-9.195293e-02	-5.870355e-02	2.203348e+00	6.101714e-01	8.660385e-01	1.259837e+00	-8.066890e-01	
8.665778e-01	7.929453e-01	3.385418e-02	7.093353e-01	9.997547e-01	-9.737147e-02	-5.169720e-02	2.254385e+00	6.165113e-01	8.575489e-01	1.285457e+00	-7.940092e-01	
8.606769e-01	7.583967e-01	3.385806e-02	6.972740e-01	9.666532e-01	-9.035449e-02	-5.131518e-02	2.209427e+00	6.126533e-01	8.669235e-01	1.257165e+00	-8.017251e-01	
8.552328e-01	7.383568e-01	3.395968e-02	6.899297e-01	9.499530e-01	-8.996535e-02	-5.745292e-02	2.183753e+00	6.086031e-01	8.703596e-01	1.246790e+00	-8.098257e-01	
8.549822e-01	7.489597e-01	3.407803e-02	7.102096e-01	9.915918e-01	-9.421555e-02	-5.221766e-02	2.253281e+00	6.211535e-01	8.629425e-01	1.269181e+00	-7.847247e-01	
8.437613e-01	6.821326e-01	3.394814e-02	6.949860e-01	9.560029e-01	-8.630137e-02	-6.079547e-02	2.199312e+00	6.135078e-01	8.709907e-01	1.244884e+00	-8.000162e-01	
8.388827e-01	6.745679e-01	3.415267e-02	6.988100e-01	9.608886e-01	-8.665240e-02	-6.107821e-02	2.211261e+00	6.170365e-01	8.712065e-01	1.244232e+00	-7.929589e-01	
8.194958e-01	5.801948e-01	3.412264e-02	6.919670e-01	9.310960e-01	-7.499786e-02	-6.088955e-02	2.181337e+00	6.192647e-01	8.829994e-01	1.208578e+00	-7.885023e-01	
8.306048e-01	6.273134e-01	3.404866e-02	7.056101e-01	9.725482e-01	-8.420516e-02	-6.213704e-02	2.233584e+00	6.222351e-01	8.700800e-01	1.247634e+00	-7.825615e-01	
8.106584e-01	5.211859e-01	3.382387e-02	7.037177e-01	9.546171e-01	-7.485780e-02	-6.760794e-02	2.221461e+00	6.266986e-01	8.786780e-01	1.221652e+00	-7.736345e-01	
8.162747e-01	5.659054e-01	3.413984e-02	7.065496e-01	9.612841e-01	-7.524537e-02	-6.054883e-02	2.231310e+00	6.283117e-01	8.774087e-01	1.225490e+00	-7.704085e-01	
7.832119e-01	3.819016e-01	3.340769e-02	7.208900e-01	9.636378e-01	-5.388798e-02	-7.741795e-02	2.269825e+00	6.478362e-01	8.866775e-01	1.197439e+00	-7.313593e-01	
7.787353e-01	3.436191e-01	3.304183e-02	7.371657e-01	9.989294e-01	-5.220723e-02	-7.460807e-02	2.326081e+00	6.574537e-01	8.799733e-01	1.217734e+00	-7.121243e-01	
7.717754e-01	3.169104e-01	3.306314e-02	7.226253e-01	9.608018e-01	-4.736875e-02	-7.726940e-02	2.273182e+00	6.515030e-01	8.895548e-01	1.188718e+00	-7.240258e-01	
7.732033e-01	3.289889e-01	3.319255e-02	7.467049e-01	1.011899e+00	-5.605365e-02	-7.612058e-02	2.356280e+00	6.658626e-01	8.798428e-01	1.218129e+00	-6.953066e-01	
7.916670e-01	4.470079e-01	3.395774e-02	7.206109e-01	9.813044e-01	-6.629684e-02	-7.359653e-02	2.276083e+00	6.404485e-01	8.769056e-01	1.227011e+00	-7.461347e-01	
7.831502e-01	3.996764e-01	3.373740e-02	7.179623e-01	9.673070e-01	-5.795303e-02	-7.575015e-02	2.263569e+00	6.422438e-01	8.826077e-01	1.209763e+00	-7.425441e-01	
8.126209e-01	5.525936e-01	3.419413e-02	7.091466e-01	9.692859e-01	-7.697060e-02	-6.756501e-02	2.241472e+00	6.286600e-01	8.746800e-01	1.233738e+00	-7.697118e-01	
7.653007e-01	2.739468e-01	3.272205e-02	7.330650e-01	9.726947e-01	-4.120552e-02	-8.093423e-02	2.305228e+00	6.617096e-01	8.906239e-01	1.185475e+00	-7.036127e-01	
7.474739e-01	4.466037e-02	2.917357e-02	7.543623e-01	9.866239e-01	-5.922826e-03	-8.882089e-02	2.366653e+00	6.864809e-01	8.978793e-01	1.163440e+00	-6.540700e-01	
7.458973e-01	0.000000e+00	2.824289e-02	7.608606e-01	9.999779e-01	-6.968102e-04	-8.690654e-02	2.388763e+00	6.906713e-01	8.956447e-01	1.170233e+00	-6.456892e-01	
7.576910e-01	1.779074e-01	3.131720e-02	7.469305e-01	9.886087e-01	-2.632184e-02	-8.673928e-02	2.347823e+00	6.752323e-01	8.919539e-01	1.181440e+00	-6.765672e-01	
7.509565e-01	9.071051e-02	2.996678e-02	7.667535e-01	1.018070e+00	-1.622428e-02	-8.951933e-02	2.411283e+00	6.920022e-01	8.904738e-01	1.185930e+00	-6.430274e-01	
7.533740e-01	1.382505e-01	3.081357e-02	7.509714e-01	9.908870e-01	-1.991110e-02	-8.774337e-02	2.359326e+00	6.800844e-01	8.935294e-01	1.176657e+00	-6.668630e-01	
7.624325e-01	2.395375e-01	3.224609e-02	7.410639e-01	9.781608e-01	-3.550330e-02	-7.986749e-02	2.328283e+00	6.710285e-01	8.934181e-01	1.176995e+00	-6.849748e-01	
7.577043e-01	1.997026e-01	3.180976e-02	7.428761e-01	9.782071e-01	-2.978482e-02	-8.222958e-02	2.333088e+00	6.735584e-01	8.945988e-01	1.173410e+00	-6.799150e-01	
7.561757e-01	1.875951e-01	3.167407e-02	7.652927e-01	1.030358e+00	-3.123545e-02	-8.353392e-02	2.412070e+00	6.853032e-01	8.835367e-01	1.206951e+00	-6.564254e-01	
7.550644e-01	1.806172e-01	3.160913e-02	7.423949e-01	9.766519e-01	-2.601687e-02	-8.536703e-02	2.331292e+00	6.734059e-01	8.949760e-01	1.172264e+00	-6.802200e-01	
7.270820e-01	9.775484e-01	3.213793e-02	7.133652e-01	9.527748e-01	-9.513175e-02	3.815090e-02	2.246184e+00	6.410221e-01	8.866056e-01	1.197657e+00	-7.449876e-01	
6.796106e-01	9.175789e-01	3.218357e-02	6.422396e-01	9.054400e-01	-1.314673e-01	4.114785e-02	2.043250e+00	5.560895e-01	8.543131e-01	1.295221e+00	-9.148528e-01	
6.886332e-01	9.261565e-01	3.229218e-02	8.273862e-01	1.005452e+00	-3.597239e-02	5.875696e-02	2.567285e+00	7.813988e-01	9.318240e-01	1.059312e+00	-4.642342e-01	
6.536720e-01	8.826435e-01	3.219616e-02	6.814986e-01	9.432695e-01	-1.183657e-01	4.808499e-02	2.160101e+00	5.981321e-01	8.659675e-01	1.260051e+00	-8.307675e-01	
6.204355e-01	8.359659e-01	3.227930e-02	7.975307e-01	9.997743e-01	-6.478085e-02	7.644556e-02	2.486449e+00	7.414009e-01	9.172233e-01	1.104353e+00	-5.442300e-01	
6.178958e-01	8.295387e-01	3.241363e-02	8.922072e-01	1.029413e+00	-9.842675e-03	8.275311e-02	2.750097e+00	8.609379e-01	9.520846e-01	9.959224e-01	-3.051560e-01	
4.852694e-01	6.559344e-01	3.152008e-02	6.627795e-01	9.024784e-01	-1.099913e-01	8.044492e-02	2.095605e+00	5.868653e-01	8.736527e-01	1.236842e+00	-8.533012e-01	
5.565341e-01	7.549321e-01	3.187276e-02	6.459559e-01	9.178547e-01	-1.332251e-01	7.504530e-02	2.058900e+00	5.554804e-01	8.484677e-01	1.312860e+00	-9.160709e-01	
5.859451e-01	7.890218e-01	3.221036e-02	8.240002e-01	1.022336e+00	-5.432676e-02	7.771411e-02	2.564889e+00	7.700910e-01	9.221130e-01	1.089319e+00	-4.868498e-01	
5.275371e-01	7.143256e-01	3.174875e-02	6.311792e-01	9.230453e-01	-1.507691e-01	7.998856e-02	2.024128e+00	5.304462e-01	8.291978e-01	1.371077e+00	-9.661394e-01	
5.433112e-01	7.336365e-01	3.198279e-02	7.357168e-01	9.644582e-01	-9.816846e-02	6.809200e-02	2.310296e+00	6.673746e-01	8.950111e-01	1.172158e+00	-6.922827e-01	
5.082388e-01	6.868917e-01	3.169075e-02	7.041096e-01	9.557942e-01	-1.097977e-01	8.665323e-02	2.224852e+00	6.248947e-01	8.756610e-01	1.230773e+00	-7.772423e-01	
4.820944e-01	6.474270e-01	3.174996e-02	8.548209e-01	1.004907e+00	-2.831703e-02	9.755108e-02	2.641717e+00	8.180037e-01	9.441687e-01	1.020832e+00	-3.910243e-01	
4.601729e-01	6.154540e-01	3.173264e-02	8.777476e-01	1.035553e+00	-2.823238e-02	1.058952e-01	2.713996e+00	8.385158e-01	9.425645e-01	1.025856e+00	-3.500002e-01	
8.042316e-01	1.072244e+00	3.198311e-02	8.089705e-01	1.024532e+00	-4.965296e-02	3.361760e-02	2.524675e+00	7.494748e-01	9.141001e-01	1.113933e+00	-5.280822e-01	
7.627336e-01	1.020583e+00	3.218334e-02	8.323078e-01	1.017820e+00	-4.324791e-02	5.277971e-02	2.584756e+00	7.838475e-01	9.292168e-01	1.067389e+00	-4.593367e-01	
7.446291e-01	9.952349e-01	3.228472e-02	8.500125e-01	1.020312e+00	-2.632866e-02	5.159091e-02	2.632854e+00	8.074061e-01	9.372083e-01	1.042579e+00	-4.122197e-01	
7.707878e-01	1.029708e+00	3.220767e-02	8.076128e-01	9.878757e-01	-4.012853e-02	3.780386e-02	2.507916e+00	7.607389e-01	9.293983e-01	1.066827e+00	-5.055539e-01	
7.892216e-01	1.049539e+00	3.218675e-02	7.879904e-01	9.819308e-01	-4.693189e-02	2.907941e-02	2.453380e+00	7.358575e-01	9.213873e-01	1.091553e+00	-5.553169e-01	
4.306592e-01	5.755243e-01	3.146983e-02	8.858411e-01	1.005085e+00	-5.635893e-03	1.014101e-01	2.725482e+00	8.597873e-01	9.576452e-01	9.782992e-01	-3.074572e-01	
4.407909e-01	5.870451e-01	3.169316e-02	8.314301e-01	9.973957e-01	-4.315264e-02	9.617141e-02	2.576444e+00	7.886069e-01	9.358456e-01	1.046821e+00	-4.498181e-01	
4.017744e-01	5.334086e-01	3.139749e-02	8.591217e-01	1.019905e+00	-4.055344e-02	1.005596e-01	2.658586e+00	8.185415e-01	9.400598e-01	1.033686e+00	-3.899488e-01	
8.972149e-01	1.215823e+00	3.057849e-02	6.305266e-01	9.266561e-01	-1.384632e-01	2.328161e-02	2.021828e+00	5.301052e-01	8.295223e-01	1.370095e+00	-9.668214e-01	
8.825495e-01	1.202883e+00	3.057541e-02	6.249669e-01	9.201104e-01	-1.394712e-01	2.483493e-02	2.004844e+00	5.245878e-01	8.281911e-01	1.374124e+00	-9.778563e-01	
8.827887e-01	1.195929e+00	3.075555e-02	6.252900e-01	9.163386e-01	-1.378993e-01	2.317981e-02	2.003975e+00	5.267640e-01	8.311971e-01	1.365029e+00	-9.735039e-01	
9.163669e-01	1.253856e+00	3.001266e-02	6.308864e-01	9.301472e-01	-1.318468e-01	2.581211e-02	2.023846e+00	5.295438e-01	8.281712e-01	1.374184e+00	-9.679442e-01	
9.128886e-01	1.235013e+00	3.044705e-02	6.360340e-01	9.295944e-01	-1.359583e-01	2.580764e-02	2.037125e+00	5.370986e-01	8.331883e-01	1.359008e+00	-9.528345e-01	
7.205986e-01	1.019656e+00	3.018098e-02	6.290055e-01	9.193589e-01	-1.452958e-01	5.833575e-02	2.015943e+00	5.298342e-01	8.311033e-01	1.365313e+00	-9.673633e-01	
7.479732e-01	1.041203e+00	3.079569e-02	6.329086e-01	9.210395e-01	-1.418465e-01	5.484079e-02	2.026393e+00	5.351805e-01	8.343125e-01	1.355609e+00	-9.566708e-01	
6.356737e-01	8.745289e-01	3.147333e-02	6.369295e-01	9.216043e-01	-1.422250e-01	6.180817e-02	2.037216e+00	5.406321e-01	8.374906e-01	1.346005e+00	-9.457676e-01	
6.839533e-01	9.565821e-01	3.073656e-02	6.258215e-01	9.119796e-01	-1.436386e-01	5.967706e-02	2.004585e+00	5.283054e-01	8.329214e-01	1.359815e+00	-9.704210e-01	
6.407530e-01	8.873833e-01	3.120468e-02	6.318582e-01	9.196955e-01	-1.449989e-01	6.460017e-02	2.023593e+00	5.337303e-01	8.334348e-01	1.358263e+00	-9.595712e-01	
6.739895e-01	9.340609e-01	3.112153e-02	6.317348e-01	9.174556e-01	-1.435898e-01	5.942841e-02	2.022106e+00	5.347166e-01	8.351382e-01	1.353114e+00	-9.575986e-01	
7.110617e-01	9.938294e-01	3.073544e-02	6.347672e-01	9.259260e-01	-1.465471e-01	5.915628e-02	2.033638e+00	5.354588e-01	8.323021e-01	1.361687e+00	-9.561142e-01	
7.293114e-01	1.008194e+00	3.114525e-02	6.315577e-01	9.200624e-01	-1.439777e-01	5.133371e-02	2.022555e+00	5.335511e-01	8.335514e-01	1.357910e+00	-9.599296e-01	
6.829887e-01	9.381182e-01	3.148294e-02	6.424813e-01	9.276454e-01	-1.411633e-01	5.876246e-02	2.053908e+00	5.464095e-01	8.391259e-01	1.341065e+00	-9.342129e-01	
7.015247e-01	9.680024e-01	3.128990e-02	6.394864e-01	9.255474e-01	-1.425212e-01	5.855339e-02	2.045383e+00	5.428138e-01	8.375080e-01	1.345952e+00	-9.414042e-01	
6.967563e-01	9.550889e-01	3.156713e-02	6.502598e-01	9.339110e-01	-1.414588e-01	6.301036e-02	2.076739e+00	5.550607e-01	8.422152e-01	1.331735e+00	-9.169103e-01	
6.919878e-01	9.421755e-01	3.184436e-02	6.390454e-01	9.196947e-01	-1.399921e-01	5.458685e-02	2.041569e+00	5.448424e-01	8.412180e-01	1.334746e+00	-9.373471e-01	
7.638483e-01	1.035906e+00	3.168700e-02	6.451545e-01	9.391921e-01	-1.453204e-01	4.522019e-02	2.065547e+00	5.455899e-01	8.343957e-01	1.355358e+00	-9.358520e-01	
7.106496e-01	9.751847e-01	3.149480e-02	6.391947e-01	9.290405e-01	-1.444801e-01	5.339258e-02	2.046073e+00	5.409422e-01	8.350013e-01	1.353527e+00	-9.451474e-01	
7.256649e-01	9.894426e-01	3.165163e-02	6.400150e-01	9.285604e-01	-1.425416e-01	4.612272e-02	2.047706e+00	5.426295e-01	8.365323e-01	1.348900e+00	-9.417727e-01	
8.309096e-01	1.129912e+00	3.112840e-02	6.297238e-01	9.206702e-01	-1.397376e-01	3.133398e-02	2.017433e+00	5.312515e-01	8.323759e-01	1.361464e+00	-9.645288e-01	
8.608953e-01	1.177887e+00	3.064241e-02	6.229028e-01	9.136108e-01	-1.411759e-01	2.790737e-02	1.996947e+00	5.241309e-01	8.302119e-01	1.368009e+00	-9.787700e-01	
8.442978e-01	1.150699e+00	3.089462e-02	6.224244e-01	9.117761e-01	-1.399021e-01	2.644587e-02	1.994845e+00	5.242959e-01	8.311116e-01	1.365288e+00	-9.784399e-01	
8.309892e-01	1.138562e+00	3.088457e-02	6.278739e-01	9.205360e-01	-1.407073e-01	3.051449e-02	2.012659e+00	5.285379e-01	8.305642e-01	1.366944e+00	-9.699559e-01	
8.310688e-01	1.147212e+00	3.064074e-02	6.337812e-01	9.225893e-01	-1.396261e-01	4.157519e-02	2.028860e+00	5.362456e-01	8.348218e-01	1.354070e+00	-9.545407e-01	
9.026161e-01	1.228939e+00	3.036974e-02	6.268399e-01	9.177288e-01	-1.335929e-01	2.373713e-02	2.008291e+00	5.287211e-01	8.322224e-01	1.361928e+00	-9.695896e-01	
7.666350e-01	1.074212e+00	3.044614e-02	6.286114e-01	9.159703e-01	-1.403052e-01	5.132484e-02	2.013015e+00	5.311668e-01	8.337158e-01	1.357413e+00	-9.646982e-01	
7.988519e-01	1.110712e+00	3.054344e-02	6.354209e-01	9.235947e-01	-1.407562e-01	4.793821e-02	2.033710e+00	5.380325e-01	8.354423e-01	1.352194e+00	-9.509668e-01	
8.181515e-01	1.122033e+00	3.097651e-02	6.387243e-01	9.275995e-01	-1.401194e-01	4.062918e-02	2.043715e+00	5.413966e-01	8.363183e-01	1.349547e+00	-9.442385e-01	
7.966225e-01	1.080067e+00	3.153613e-02	6.304437e-01	9.119694e-01	-1.358685e-01	3.785319e-02	2.015536e+00	5.360616e-01	8.389533e-01	1.341586e+00	-9.549087e-01	
7.644056e-01	1.043567e+00	3.143882e-02	6.322330e-01	9.151833e-01	-1.383969e-01	4.302486e-02	2.021741e+00	5.370986e-01	8.381974e-01	1.343869e+00	-9.528347e-01	
8.052341e-01	1.096853e+00	3.131228e-02	6.389157e-01	9.300094e-01	-1.428373e-01	4.131222e-02	2.045395e+00	5.404917e-01	8.346702e-01	1.354528e+00	-9.460484e-01	
7.655203e-01	1.058890e+00	3.094248e-02	6.333012e-01	9.246140e-01	-1.431983e-01	4.589143e-02	2.028778e+00	5.343848e-01	8.325555e-01	1.360921e+00	-9.582622e-01	
7.913064e-01	1.086971e+00	3.106063e-02	6.379596e-01	9.262049e-01	-1.405309e-01	4.607898e-02	2.041294e+00	5.407233e-01	8.362793e-01	1.349665e+00	-9.455851e-01	
8.306709e-01	1.103962e+00	3.185988e-02	8.375234e-01	1.011588e+00	-2.175267e-02	2.862565e-02	2.595991e+00	7.937218e-01	9.350628e-01	1.049255e+00	-4.395882e-01	