TITLE = "Visualization of the solution"
VARIABLES = "x","y","z","Density","Momentum_x","Momentum_y","Momentum_z","Energy","Pressure","Temperature","Mach","Pressure_Coefficient"
ZONE NODES= 1940, ELEMENTS= 3807, DATAPACKING=POINT, ZONETYPE=FEQUADRILATERAL
8.241487e-01	0.000000e+00	-2.070584e-02	9.674425e-01	9.952932e-01	-1.106073e-03	1.005414e-01	2.944582e+00	9.709536e-01	9.902452e-01	8.723285e-01	-8.512454e-02	
5.997867e-01	0.000000e+00	-4.023706e-02	9.120337e-01	1.013734e+00	-3.801790e-03	6.699998e-02	2.798301e+00	8.929781e-01	9.660494e-01	9.514445e-01	-2.410757e-01	
6.576918e-01	0.000000e+00	-3.587376e-02	9.245706e-01	1.010269e+00	-2.195321e-03	7.766012e-02	2.831506e+00	9.105143e-01	9.716640e-01	9.333405e-01	-2.060033e-01	
7.148511e-01	0.000000e+00	-3.106514e-02	9.398769e-01	1.005126e+00	-1.686716e-03	8.651455e-02	2.871817e+00	9.321525e-01	9.785554e-01	9.109211e-01	-1.627267e-01	
7.702183e-01	0.000000e+00	-2.602451e-02	9.535606e-01	1.001758e+00	-1.409487e-03	9.277382e-02	2.908311e+00	9.510403e-01	9.840566e-01	8.928534e-01	-1.249512e-01	
8.696856e-01	0.000000e+00	-1.580104e-02	9.853492e-01	9.902998e-01	3.081989e-05	1.089194e-01	2.992480e+00	9.955291e-01	9.968578e-01	8.501424e-01	-3.597360e-02	
9.295733e-01	0.000000e+00	-8.713461e-03	1.021200e+00	9.680985e-01	2.906909e-04	1.176957e-01	3.085268e+00	1.047843e+00	1.012405e+00	7.967793e-01	6.865338e-02	
9.037352e-01	0.000000e+00	-1.185074e-02	1.002911e+00	9.809750e-01	-2.074584e-04	1.151137e-01	3.038309e+00	1.020777e+00	1.004241e+00	8.250248e-01	1.452297e-02	
6.443854e-01	1.051332e-01	-3.880147e-02	9.157017e-01	1.012829e+00	-1.203450e-02	7.210943e-02	2.808103e+00	8.980220e-01	9.676145e-01	9.464118e-01	-2.309879e-01	
5.985542e-01	1.182094e-01	-4.192704e-02	9.016567e-01	1.014915e+00	-1.818198e-02	6.139595e-02	2.770479e+00	8.788018e-01	9.616547e-01	9.655224e-01	-2.694281e-01	
7.985830e-01	7.235251e-02	-2.517165e-02	9.610231e-01	9.996858e-01	-5.522800e-03	9.547938e-02	2.928170e+00	9.613838e-01	9.870347e-01	8.830039e-01	-1.042643e-01	
8.521919e-01	5.082186e-02	-1.923502e-02	9.770083e-01	9.925319e-01	-4.331941e-03	1.034026e-01	2.970074e+00	9.841768e-01	9.939037e-01	8.600882e-01	-5.867821e-02	
7.553741e-01	1.054410e-01	-2.991954e-02	9.480241e-01	1.005068e+00	-8.326053e-03	8.849304e-02	2.894085e+00	9.428584e-01	9.812881e-01	9.019659e-01	-1.413149e-01	
7.021665e-01	1.027627e-01	-3.436341e-02	9.328813e-01	1.010300e+00	-1.222157e-02	8.147126e-02	2.854242e+00	9.214133e-01	9.745352e-01	9.240274e-01	-1.842052e-01	
6.513174e-01	2.369700e-01	-4.019171e-02	9.131154e-01	1.018113e+00	-2.680812e-02	5.987640e-02	2.802598e+00	8.930597e-01	9.649932e-01	9.548352e-01	-2.409123e-01	
7.483102e-01	2.304110e-01	-3.322179e-02	9.418802e-01	1.012215e+00	-1.582455e-02	8.146754e-02	2.879357e+00	9.327201e-01	9.770687e-01	9.157773e-01	-1.615916e-01	
6.891395e-01	2.003791e-01	-3.718892e-02	9.269110e-01	1.014926e+00	-1.941792e-02	7.257862e-02	2.839264e+00	9.122279e-01	9.710347e-01	9.353767e-01	-2.025760e-01	
7.710305e-01	4.996298e-01	-3.615332e-02	9.224930e-01	1.016762e+00	-2.890266e-02	6.448047e-02	2.827733e+00	9.058778e-01	9.688934e-01	9.422916e-01	-2.152761e-01	
7.202934e-01	3.317071e-01	-3.710350e-02	9.234249e-01	1.016718e+00	-2.699512e-02	6.943891e-02	2.830338e+00	9.070455e-01	9.691632e-01	9.414215e-01	-2.129408e-01	
9.483915e-01	0.000000e+00	-6.387998e-03	1.039481e+00	9.597284e-01	3.601937e-04	1.181930e-01	3.133573e+00	1.073522e+00	1.018977e+00	7.736406e-01	1.200132e-01	
8.034483e-01	2.047915e-01	-2.796117e-02	9.602447e-01	1.005985e+00	-1.142134e-02	9.002951e-02	2.927786e+00	9.586180e-01	9.849929e-01	8.897621e-01	-1.097958e-01	
9.422234e-01	2.499772e-02	-8.019523e-03	1.031864e+00	9.648731e-01	2.074732e-03	1.181245e-01	3.113871e+00	1.062397e+00	1.015860e+00	7.846629e-01	9.776143e-02	
8.932365e-01	4.686697e-02	-1.460932e-02	9.952599e-01	9.850831e-01	-2.632470e-03	1.112569e-01	3.018294e+00	1.009827e+00	1.001105e+00	8.357398e-01	-7.378214e-03	
9.196246e-01	3.244836e-02	-1.103555e-02	1.012554e+00	9.748424e-01	9.628565e-04	1.163398e-01	3.063211e+00	1.034904e+00	1.008443e+00	8.105549e-01	4.277586e-02	
9.361161e-01	6.010273e-02	-9.977885e-03	1.024646e+00	9.714766e-01	1.587299e-03	1.177617e-01	3.095698e+00	1.051359e+00	1.012387e+00	7.968454e-01	7.568559e-02	
8.341549e-01	1.177855e-01	-2.291984e-02	9.717507e-01	9.994161e-01	-7.281259e-03	9.795475e-02	2.957523e+00	9.754495e-01	9.904199e-01	8.717460e-01	-7.613273e-02	
8.826490e-01	1.114346e-01	-1.776964e-02	9.895481e-01	9.938184e-01	-4.762159e-03	1.055597e-01	3.004915e+00	1.000088e+00	9.971736e-01	8.490759e-01	-2.685565e-02	
9.196131e-01	8.076264e-01	-3.080406e-02	9.349249e-01	1.013816e+00	-1.876655e-02	7.006798e-02	2.860661e+00	9.232659e-01	9.743601e-01	9.245964e-01	-1.805000e-01	
7.948215e-01	3.783335e-01	-3.245135e-02	9.452990e-01	1.011218e+00	-1.998351e-02	8.035044e-02	2.888365e+00	9.375488e-01	9.785750e-01	9.108571e-01	-1.519342e-01	
8.491054e-01	5.800610e-01	-3.205530e-02	9.406268e-01	1.011758e+00	-2.074673e-02	7.495876e-02	2.875674e+00	9.313299e-01	9.769123e-01	9.162874e-01	-1.643721e-01	
9.615023e-01	0.000000e+00	-4.764848e-03	1.050528e+00	9.466954e-01	-1.412533e-04	1.171590e-01	3.160747e+00	1.091060e+00	1.024733e+00	7.530409e-01	1.550890e-01	
9.580226e-01	2.176879e-02	-5.952728e-03	1.048378e+00	9.545291e-01	3.042614e-03	1.174097e-01	3.156823e+00	1.086281e+00	1.022337e+00	7.616545e-01	1.455311e-01	
9.710275e-01	0.000000e+00	-3.586046e-03	1.065890e+00	9.446966e-01	3.131524e-04	1.162807e-01	3.202841e+00	1.111143e+00	1.028553e+00	7.391837e-01	1.952540e-01	
9.782675e-01	0.000000e+00	-2.690092e-03	1.074522e+00	9.385555e-01	-3.101150e-04	1.149384e-01	3.225242e+00	1.123679e+00	1.031802e+00	7.272765e-01	2.203262e-01	
9.969063e-01	9.327764e-16	-3.829291e-04	1.116711e+00	8.247993e-01	1.409309e-03	1.039747e-01	3.316748e+00	1.202924e+00	1.062837e+00	6.062042e-01	3.788162e-01	
9.837407e-01	0.000000e+00	-2.012674e-03	1.081685e+00	9.192143e-01	-5.999131e-04	1.138434e-01	3.240382e+00	1.137527e+00	1.037601e+00	7.057112e-01	2.480225e-01	
9.879716e-01	0.000000e+00	-1.488934e-03	1.096916e+00	9.201733e-01	1.591028e-03	1.131098e-01	3.283050e+00	1.156505e+00	1.040264e+00	6.956683e-01	2.859787e-01	
9.913691e-01	0.000000e+00	-1.068340e-03	1.102320e+00	8.968727e-01	-3.904130e-04	1.106474e-01	3.292565e+00	1.168862e+00	1.046224e+00	6.728395e-01	3.106916e-01	
9.943349e-01	-3.670121e-11	-7.012061e-04	1.121203e+00	8.969627e-01	4.329531e-03	1.082619e-01	3.345328e+00	1.192523e+00	1.049426e+00	6.603597e-01	3.580139e-01	
9.983217e-01	3.930245e-03	-3.444083e-04	1.141191e+00	9.284321e-01	2.348519e-03	1.256203e-01	3.408989e+00	1.209761e+00	1.045949e+00	6.739037e-01	3.924907e-01	
9.971411e-01	0.000000e+00	3.538675e-04	1.132697e+00	8.497852e-01	-3.729012e-03	-1.054198e-01	3.367031e+00	1.217340e+00	1.060395e+00	6.163149e-01	4.076491e-01	
9.943349e-01	-1.070168e-19	7.012050e-04	1.119995e+00	8.871940e-01	1.897810e-03	-1.074659e-01	3.339702e+00	1.193261e+00	1.051208e+00	6.533451e-01	3.594906e-01	
9.908746e-01	0.000000e+00	1.129516e-03	1.096215e+00	8.972026e-01	-3.430617e-03	-1.118805e-01	3.275620e+00	1.161098e+00	1.045063e+00	6.773262e-01	2.951643e-01	
1.047754e+00	1.110563e+00	-2.669363e-02	9.403375e-01	1.012062e+00	9.545505e-04	7.236407e-02	2.874856e+00	9.309771e-01	9.768428e-01	9.165141e-01	-1.650776e-01	
8.664173e-01	2.024517e-01	-2.199922e-02	9.784986e-01	9.988663e-01	-8.073744e-03	9.835293e-02	2.975861e+00	9.844222e-01	9.926374e-01	8.643344e-01	-5.818744e-02	
8.553170e-01	3.231275e-01	-2.609446e-02	9.699522e-01	1.005854e+00	-1.079136e-02	9.125671e-02	2.954322e+00	9.713709e-01	9.881075e-01	8.794434e-01	-8.428999e-02	
9.551965e-01	5.304742e-02	-7.390115e-03	1.040553e+00	9.579131e-01	6.143884e-03	1.175252e-01	3.136046e+00	1.075389e+00	1.019697e+00	7.710816e-01	1.237461e-01	
9.200630e-01	9.789141e-02	-1.315524e-02	1.008586e+00	9.801109e-01	-1.227016e-03	1.127989e-01	3.053620e+00	1.028437e+00	1.006083e+00	8.186974e-01	2.984214e-02	
9.161538e-01	1.767941e-01	-1.608942e-02	1.000428e+00	9.878390e-01	-3.117358e-03	1.070453e-01	3.033153e+00	1.015887e+00	1.001910e+00	8.329975e-01	4.741677e-03	
9.504976e-01	9.532851e-02	-9.429591e-03	1.031398e+00	9.687234e-01	4.366304e-03	1.177045e-01	3.113603e+00	1.060779e+00	1.014772e+00	7.884913e-01	9.452687e-02	
1.006397e+00	9.381869e-01	-2.669384e-02	9.496641e-01	1.008611e+00	-4.871854e-03	7.909626e-02	2.899391e+00	9.441902e-01	9.809772e-01	9.029869e-01	-1.386514e-01	
9.451970e-01	7.143333e-01	-2.710782e-02	9.577541e-01	1.006229e+00	-1.046730e-02	8.323242e-02	2.920875e+00	9.554490e-01	9.842896e-01	8.920844e-01	-1.161338e-01	
1.091565e+00	1.048218e+00	-2.196752e-02	9.685793e-01	1.004328e+00	9.941531e-03	8.543976e-02	2.949960e+00	9.701768e-01	9.882917e-01	8.788314e-01	-8.667824e-02	
1.126070e+00	1.189939e+00	-2.212959e-02	9.629004e-01	1.005772e+00	1.842667e-02	8.142390e-02	2.934793e+00	9.623593e-01	9.861099e-01	8.860679e-01	-1.023133e-01	
1.177880e+00	1.273476e+00	-1.954607e-02	9.727574e-01	1.003878e+00	3.579036e-02	8.546185e-02	2.961436e+00	9.756107e-01	9.895584e-01	8.746175e-01	-7.581045e-02	
8.846307e-01	5.001986e-01	-2.758927e-02	9.623704e-01	1.005529e+00	-1.148232e-02	8.667833e-02	2.933372e+00	9.616352e-01	9.859106e-01	8.867274e-01	-1.037613e-01	
9.922452e-01	2.536560e-03	1.048102e-03	1.107948e+00	9.003091e-01	2.924574e-03	-1.089503e-01	3.309045e+00	1.175157e+00	1.046517e+00	6.717060e-01	3.232825e-01	
9.952568e-01	3.261821e-03	7.005271e-04	1.117929e+00	9.010432e-01	2.516571e-03	-1.148728e-01	3.337293e+00	1.187308e+00	1.047897e+00	6.663393e-01	3.475847e-01	
1.000000e+00	-1.050055e-11	-3.020067e-10	1.111237e+00	7.941498e-01	-4.014518e-03	4.804242e-03	3.293593e+00	1.203922e+00	1.068959e+00	5.802960e-01	3.808114e-01	
9.703137e-01	7.779199e-02	-6.379621e-03	1.051919e+00	9.544149e-01	1.039196e-02	1.175894e-01	3.166626e+00	1.090811e+00	1.023144e+00	7.587593e-01	1.545910e-01	
9.692016e-01	1.790284e-02	-4.434404e-03	1.060566e+00	9.443128e-01	4.501586e-03	1.163542e-01	3.187965e+00	1.104468e+00	1.027508e+00	7.429906e-01	1.819049e-01	
9.687785e-01	4.372021e-02	-5.384568e-03	1.057124e+00	9.481783e-01	8.901864e-03	1.171482e-01	3.179434e+00	1.099070e+00	1.025815e+00	7.491328e-01	1.711086e-01	
9.776358e-01	1.355280e-02	-3.239445e-03	1.072151e+00	9.314958e-01	6.322494e-03	1.149069e-01	3.216893e+00	1.122428e+00	1.032933e+00	7.231011e-01	2.178245e-01	
9.842924e-01	1.296394e-02	-2.395167e-03	1.087791e+00	9.329763e-01	8.136976e-04	1.157616e-01	3.260805e+00	1.141819e+00	1.035669e+00	7.129399e-01	2.566063e-01	
9.963845e-01	7.252199e-03	-6.996977e-04	1.108397e+00	8.316141e-01	6.569639e-03	1.081131e-01	3.294949e+00	1.191073e+00	1.060260e+00	6.168700e-01	3.551142e-01	
9.996569e-01	9.151826e-03	-3.607050e-04	1.213713e+00	1.027427e+00	-3.163128e-02	1.203004e-01	3.634830e+00	1.277436e+00	1.038467e+00	7.024562e-01	5.278396e-01	
9.890604e-01	9.760901e-03	-1.693603e-03	1.087389e+00	8.887332e-01	1.187466e-02	1.108554e-01	3.248968e+00	1.152027e+00	1.045315e+00	6.763543e-01	2.770225e-01	
9.925868e-01	6.690548e-03	-1.150272e-03	1.105181e+00	8.920181e-01	9.659718e-03	1.115186e-01	3.299477e+00	1.173530e+00	1.047683e+00	6.671732e-01	3.200274e-01	
1.001479e+00	5.266030e-03	-1.072274e-11	1.126780e+00	8.093658e-01	1.169812e-02	-4.461811e-04	3.340515e+00	1.219908e+00	1.068212e+00	5.835031e-01	4.127844e-01	
9.982708e-01	3.737535e-03	3.440029e-04	1.165706e+00	8.974057e-01	2.427102e-02	-1.062199e-01	3.470127e+00	1.247842e+00	1.056185e+00	6.334730e-01	4.686527e-01	
9.868024e-01	0.000000e+00	1.633557e-03	1.088038e+00	9.083537e-01	4.735033e-04	-1.128306e-01	3.255451e+00	1.148171e+00	1.041195e+00	6.921345e-01	2.693109e-01	
9.887357e-01	3.654785e-03	1.521448e-03	1.098096e+00	9.208135e-01	9.136522e-04	-1.125298e-01	3.286477e+00	1.157854e+00	1.040358e+00	6.953121e-01	2.886761e-01	
9.757341e-01	6.200029e-01	-2.226188e-02	9.800624e-01	9.988260e-01	-2.521970e-03	9.227873e-02	2.979958e+00	9.866543e-01	9.933007e-01	8.621114e-01	-5.372313e-02	
1.040947e+00	8.560326e-01	-2.200637e-02	9.742130e-01	1.000530e+00	1.944889e-03	8.924258e-02	2.964347e+00	9.785913e-01	9.910986e-01	8.694807e-01	-6.984915e-02	
9.180402e-01	2.804830e-01	-1.893539e-02	9.926030e-01	9.957477e-01	-2.919130e-03	1.013647e-01	3.013729e+00	1.003639e+00	9.976343e-01	8.475186e-01	-1.975385e-02	
9.320609e-01	4.200511e-01	-2.132619e-02	9.846865e-01	9.981537e-01	-4.747462e-03	9.626963e-02	2.992554e+00	9.927735e-01	9.947676e-01	8.571854e-01	-4.148472e-02	
9.479173e-01	1.510436e-01	-1.162528e-02	1.021705e+00	9.725863e-01	4.873256e-03	1.136092e-01	3.087749e+00	1.047403e+00	1.011481e+00	8.000053e-01	6.777351e-02	
9.718209e-01	1.232460e-01	-7.772482e-03	1.046623e+00	9.676623e-01	7.511441e-03	1.178376e-01	3.155427e+00	1.080575e+00	1.018671e+00	7.747235e-01	1.341176e-01	
9.585263e-01	2.385141e-01	-1.324625e-02	1.015654e+00	9.862409e-01	2.570534e-03	1.118379e-01	3.074760e+00	1.035904e+00	1.006336e+00	8.178285e-01	4.477598e-02	
9.922156e-01	6.601464e-03	1.193132e-03	1.103125e+00	8.943491e-01	5.040658e-03	-1.100183e-01	3.294216e+00	1.170470e+00	1.046899e+00	6.702220e-01	3.139084e-01	
9.881357e-01	9.911236e-02	-4.914694e-03	1.064292e+00	9.400048e-01	1.541014e-02	1.151829e-01	3.197214e+00	1.110301e+00	1.029318e+00	7.363916e-01	1.935711e-01	
1.204569e+00	1.343831e+00	-1.881290e-02	9.756390e-01	1.001301e+00	4.734298e-02	8.579416e-02	2.968718e+00	9.799913e-01	9.910659e-01	8.695901e-01	-6.704909e-02	
1.254057e+00	1.362723e+00	-1.473040e-02	9.902873e-01	9.927214e-01	5.968178e-02	9.343772e-02	3.006793e+00	1.001202e+00	9.975394e-01	8.478395e-01	-2.462710e-02	
1.007769e+00	5.308515e-01	-1.673926e-02	1.001386e+00	9.904000e-01	4.406041e-03	1.024739e-01	3.036373e+00	1.016541e+00	1.001597e+00	8.340651e-01	6.050828e-03	
1.160594e+00	1.127159e+00	-1.761713e-02	9.843185e-01	9.960244e-01	2.428558e-02	9.176982e-02	2.990888e+00	9.929501e-01	9.953166e-01	8.553384e-01	-4.113158e-02	
1.125544e+00	9.795286e-01	-1.718110e-02	9.907777e-01	9.958536e-01	1.643969e-02	9.572495e-02	3.008625e+00	1.001355e+00	9.971975e-01	8.489951e-01	-2.432220e-02	
1.206009e+00	1.218186e+00	-1.561383e-02	9.900042e-01	9.933929e-01	3.494243e-02	9.315555e-02	3.005863e+00	1.000987e+00	9.976098e-01	8.476015e-01	-2.505840e-02	
1.237220e+00	1.300871e+00	-1.474689e-02	9.921341e-01	9.927599e-01	4.950053e-02	9.485191e-02	3.011753e+00	1.003717e+00	9.981829e-01	8.456625e-01	-1.959870e-02	
9.966932e-01	8.344416e-03	6.994707e-04	1.147907e+00	9.727468e-01	8.895639e-03	-1.226915e-01	3.438165e+00	1.207766e+00	1.038115e+00	7.037787e-01	3.885010e-01	
9.832254e-01	5.943776e-02	-4.142914e-03	1.072704e+00	9.525052e-01	1.685828e-02	1.164428e-01	3.223783e+00	1.117777e+00	1.028122e+00	7.407541e-01	2.085225e-01	
9.781012e-01	3.384161e-02	-3.887178e-03	1.067315e+00	9.286314e-01	9.243984e-03	1.150847e-01	3.202743e+00	1.117006e+00	1.032601e+00	7.243298e-01	2.069793e-01	
9.854212e-01	2.930787e-02	-2.823724e-03	1.083245e+00	9.364817e-01	1.044656e-02	1.161885e-01	3.249039e+00	1.135183e+00	1.033972e+00	7.192550e-01	2.433334e-01	
9.910442e-01	2.392793e-02	-1.940712e-03	1.080213e+00	8.717358e-01	2.007400e-02	1.094260e-01	3.224958e+00	1.146993e+00	1.047661e+00	6.672586e-01	2.669535e-01	
1.003458e+00	1.230920e-02	-2.498154e-11	1.094961e+00	7.567268e-01	6.346971e-02	-9.373664e-03	3.240705e+00	1.190936e+00	1.073147e+00	5.620656e-01	3.548394e-01	
9.985531e-01	1.492581e-02	-6.981029e-04	1.134807e+00	9.123821e-01	2.196955e-02	1.120264e-01	3.387084e+00	1.205826e+00	1.048412e+00	6.643282e-01	3.846206e-01	
9.944938e-01	1.690728e-02	-1.269521e-03	1.110333e+00	9.079548e-01	1.134251e-02	1.131716e-01	3.317627e+00	1.176228e+00	1.045220e+00	6.767200e-01	3.254241e-01	
9.815798e-01	0.000000e+00	2.279973e-03	1.079646e+00	9.367786e-01	-2.055030e-04	-1.147669e-01	3.239043e+00	1.130614e+00	1.033243e+00	7.219551e-01	2.341957e-01	
9.846840e-01	4.446433e-03	2.050528e-03	1.079364e+00	9.111979e-01	4.484542e-03	-1.138921e-01	3.231979e+00	1.136538e+00	1.038928e+00	7.007193e-01	2.460444e-01	
9.885651e-01	9.372419e-03	1.741402e-03	1.103832e+00	9.730375e-01	-2.903255e-03	-1.199301e-01	3.315500e+00	1.152044e+00	1.029759e+00	7.347768e-01	2.770566e-01	
1.064545e+00	7.602710e-01	-1.734293e-02	9.951820e-01	9.930134e-01	8.544063e-03	9.947680e-02	3.019985e+00	1.007821e+00	9.991949e-01	8.422333e-01	-1.139047e-02	
9.746106e-01	3.590504e-01	-1.521143e-02	1.006806e+00	9.848513e-01	3.767852e-03	1.068479e-01	3.049855e+00	1.024996e+00	1.004491e+00	8.241698e-01	2.296100e-02	
1.033948e+00	4.549484e-01	-1.150333e-02	1.024150e+00	9.769383e-01	1.273982e-02	1.116978e-01	3.095641e+00	1.049408e+00	1.010997e+00	8.016890e-01	7.178330e-02	
1.084553e+00	6.684444e-01	-1.252841e-02	1.016482e+00	9.807933e-01	1.652347e-02	1.087180e-01	3.075475e+00	1.038539e+00	1.008074e+00	8.118296e-01	5.004642e-02	
9.784151e-01	1.873353e-01	-9.173631e-03	1.039797e+00	9.686610e-01	1.044629e-02	1.163421e-01	3.136772e+00	1.071606e+00	1.016848e+00	7.811794e-01	1.161804e-01	
9.940452e-01	1.522292e-01	-6.030556e-03	1.054344e+00	9.438473e-01	1.919240e-02	1.163973e-01	3.170628e+00	1.096625e+00	1.026231e+00	7.476242e-01	1.662191e-01	
1.003196e+00	3.069541e-01	-1.023699e-02	1.033900e+00	9.735285e-01	1.390869e-02	1.145013e-01	3.121727e+00	1.062781e+00	1.014226e+00	7.904067e-01	9.852981e-02	
1.005452e+00	2.354633e-01	-7.511900e-03	1.047373e+00	9.601867e-01	2.018461e-02	1.183489e-01	3.155601e+00	1.083436e+00	1.020638e+00	7.677289e-01	1.398412e-01	
9.935632e-01	1.243396e-02	1.229149e-03	1.090770e+00	8.537011e-01	2.070248e-02	-1.073074e-01	3.250357e+00	1.164322e+00	1.053196e+00	6.454588e-01	3.016113e-01	
9.963851e-01	7.688090e-02	-3.120827e-03	1.083365e+00	9.334015e-01	2.090519e-02	1.140664e-01	3.248594e+00	1.136116e+00	1.034706e+00	7.165261e-01	2.451995e-01	
1.006811e+00	1.362123e-01	-3.893213e-03	1.083593e+00	9.510916e-01	2.470675e-02	1.133991e-01	3.253627e+00	1.132006e+00	1.030747e+00	7.311564e-01	2.369811e-01	
1.255048e+00	1.244104e+00	-1.132125e-02	1.010498e+00	9.862285e-01	4.821128e-02	1.035421e-01	3.060631e+00	1.029162e+00	1.004888e+00	8.228052e-01	3.129236e-02	
1.293899e+00	1.387114e+00	-1.138182e-02	1.002167e+00	9.863749e-01	7.766391e-02	1.009101e-01	3.038200e+00	1.017878e+00	1.002132e+00	8.322410e-01	8.723804e-03	
1.283873e+00	1.330223e+00	-1.077545e-02	1.009298e+00	9.848000e-01	6.399885e-02	1.033723e-01	3.057175e+00	1.027762e+00	1.004714e+00	8.234037e-01	2.849146e-02	
1.202095e+00	1.105681e+00	-1.290642e-02	1.005816e+00	9.859629e-01	3.368769e-02	1.027458e-01	3.047478e+00	1.023366e+00	1.003880e+00	8.262619e-01	1.970069e-02	
1.148527e+00	9.104835e-01	-1.287732e-02	1.010356e+00	9.837691e-01	2.336884e-02	1.058293e-01	3.059372e+00	1.029847e+00	1.005699e+00	8.200213e-01	3.266291e-02	
1.321013e+00	1.376753e+00	-8.050608e-03	1.017720e+00	9.723547e-01	8.307679e-02	1.092804e-01	3.077521e+00	1.041503e+00	1.009722e+00	8.061236e-01	5.597396e-02	
1.315314e+00	1.334686e+00	-7.336566e-03	1.028281e+00	9.718537e-01	7.834518e-02	1.115169e-01	3.106489e+00	1.055278e+00	1.012569e+00	7.962077e-01	8.352464e-02	
9.988135e-01	1.584693e-02	6.979114e-04	1.151486e+00	9.357374e-01	1.230548e-02	-1.126871e-01	3.439092e+00	1.221322e+00	1.046505e+00	6.717522e-01	4.156130e-01	
9.932208e-01	4.609943e-02	-2.442257e-03	1.090954e+00	9.273220e-01	1.900688e-02	1.129247e-01	3.268197e+00	1.147228e+00	1.037559e+00	7.058698e-01	2.674251e-01	
9.980821e-01	3.288416e-02	-1.380943e-03	1.112141e+00	9.321556e-01	2.448686e-02	1.152430e-01	3.328521e+00	1.172653e+00	1.040349e+00	6.953465e-01	3.182735e-01	
1.006396e+00	2.276743e-02	-4.615407e-11	1.089514e+00	7.744292e-01	5.774139e-02	4.343382e-03	3.228788e+00	1.180807e+00	1.069339e+00	5.786588e-01	3.345815e-01	
1.001707e+00	2.608604e-02	-6.957834e-04	1.148974e+00	9.299189e-01	7.643058e-03	1.144131e-01	3.430759e+00	1.219489e+00	1.047218e+00	6.689812e-01	4.119471e-01	
9.746931e-01	0.000000e+00	3.132337e-03	1.070024e+00	9.511989e-01	8.313263e-04	-1.166627e-01	3.215981e+00	1.114734e+00	1.027891e+00	7.415955e-01	2.024371e-01	
9.789440e-01	6.621555e-03	2.836584e-03	1.072759e+00	9.341989e-01	-9.017662e-04	-1.151056e-01	3.219259e+00	1.122526e+00	1.032437e+00	7.249332e-01	2.180205e-01	
9.837471e-01	1.190423e-02	2.425814e-03	1.082443e+00	9.373021e-01	7.449862e-03	-1.175853e-01	3.247048e+00	1.133930e+00	1.033595e+00	7.206500e-01	2.408274e-01	
9.890305e-01	1.757774e-02	1.969142e-03	1.092951e+00	9.189066e-01	6.711615e-03	-1.111632e-01	3.271636e+00	1.151869e+00	1.039853e+00	6.972230e-01	2.767069e-01	
1.293046e+00	1.272651e+00	-7.918310e-03	1.026302e+00	9.704924e-01	6.234982e-02	1.110371e-01	3.100331e+00	1.053429e+00	1.012743e+00	7.956002e-01	7.982538e-02	
1.258202e+00	1.169213e+00	-8.615117e-03	1.027298e+00	9.720906e-01	5.159361e-02	1.106144e-01	3.103329e+00	1.054461e+00	1.012753e+00	7.955651e-01	8.189112e-02	
1.214033e+00	1.021129e+00	-8.940785e-03	1.031849e+00	9.749500e-01	3.988854e-02	1.110294e-01	3.116530e+00	1.059677e+00	1.013274e+00	7.937437e-01	9.232125e-02	
1.050414e+00	3.960778e-01	-7.530269e-03	1.047039e+00	9.556015e-01	2.427840e-02	1.146047e-01	3.153384e+00	1.084302e+00	1.021779e+00	7.636517e-01	1.415731e-01	
1.093116e+00	5.650628e-01	-8.112085e-03	1.043792e+00	9.628723e-01	2.526677e-02	1.142186e-01	3.146293e+00	1.078250e+00	1.019237e+00	7.727156e-01	1.294684e-01	
1.154622e+00	8.023617e-01	-8.723069e-03	1.035993e+00	9.672248e-01	3.184810e-02	1.127690e-01	3.125882e+00	1.067098e+00	1.016288e+00	7.831537e-01	1.071633e-01	
1.017911e+00	2.077617e-01	-5.007258e-03	1.069084e+00	9.505894e-01	2.495945e-02	1.151666e-01	3.213251e+00	1.113657e+00	1.027801e+00	7.419234e-01	2.002818e-01	
1.036751e+00	2.990223e-01	-5.848948e-03	1.060687e+00	9.568119e-01	2.441029e-02	1.173030e-01	3.191610e+00	1.101315e+00	1.024457e+00	7.540353e-01	1.755989e-01	
9.952800e-01	2.160835e-02	1.335682e-03	1.107498e+00	9.150947e-01	1.667063e-02	-1.149177e-01	3.311457e+00	1.170924e+00	1.043171e+00	6.845969e-01	3.148166e-01	
1.003734e+00	7.021602e-02	-1.979626e-03	1.104117e+00	9.297226e-01	2.499325e-02	1.123187e-01	3.305479e+00	1.163218e+00	1.039479e+00	6.986380e-01	2.994052e-01	
1.011779e+00	1.108164e-01	-2.395582e-03	1.086041e+00	9.106254e-01	3.270908e-02	1.123629e-01	3.250552e+00	1.144990e+00	1.040219e+00	6.958389e-01	2.629484e-01	
1.025373e+00	1.745752e-01	-2.929973e-03	1.083022e+00	9.140590e-01	3.539040e-02	1.119246e-01	3.242968e+00	1.140351e+00	1.038893e+00	7.008490e-01	2.536706e-01	
1.346345e+00	1.396361e+00	-5.678568e-03	1.033354e+00	9.613797e-01	1.075714e-01	1.117310e-01	3.118456e+00	1.063843e+00	1.015776e+00	7.849592e-01	1.006537e-01	
1.322470e+00	1.297928e+00	-5.216786e-03	1.047002e+00	9.594868e-01	8.298563e-02	1.138410e-01	3.155133e+00	1.082405e+00	1.020027e+00	7.699062e-01	1.377778e-01	
1.339404e+00	1.359306e+00	-5.254108e-03	1.041456e+00	9.590224e-01	9.422223e-02	1.126127e-01	3.139896e+00	1.075195e+00	1.018629e+00	7.748757e-01	1.233587e-01	
1.001972e+00	2.702168e-02	6.955889e-04	1.131763e+00	8.839033e-01	2.981560e-02	-1.063217e-01	3.372007e+00	1.208583e+00	1.053636e+00	6.437060e-01	3.901341e-01	
1.004312e+00	5.280679e-02	-1.302565e-03	1.089735e+00	8.453920e-01	4.516817e-02	1.043431e-01	3.245737e+00	1.164755e+00	1.054588e+00	6.398956e-01	3.024778e-01	
1.006393e+00	4.266660e-02	-6.923374e-04	1.137716e+00	8.890137e-01	5.604648e-02	1.111383e-01	3.390246e+00	1.214439e+00	1.053201e+00	6.454387e-01	4.018471e-01	
1.010765e+00	3.831961e-02	-7.763924e-11	1.121853e+00	8.286396e-01	6.401563e-02	2.466093e-03	3.331161e+00	1.209320e+00	1.063592e+00	6.030551e-01	3.916092e-01	
9.655784e-01	0.000000e+00	4.260369e-03	1.055612e+00	9.502506e-01	-2.456516e-04	-1.172220e-01	3.175764e+00	1.096621e+00	1.024995e+00	7.520960e-01	1.662100e-01	
9.715390e-01	1.015594e-02	3.875808e-03	1.060478e+00	9.400724e-01	3.519263e-03	-1.164495e-01	3.186646e+00	1.105431e+00	1.028489e+00	7.394187e-01	1.838302e-01	
9.773273e-01	1.616897e-02	3.368567e-03	1.072893e+00	9.466392e-01	1.061744e-03	-1.163742e-01	3.222785e+00	1.119541e+00	1.029563e+00	7.354950e-01	2.120498e-01	
9.836369e-01	1.996354e-02	2.719670e-03	1.075529e+00	9.278094e-01	7.441093e-03	-1.148609e-01	3.225382e+00	1.127614e+00	1.034445e+00	7.174968e-01	2.281953e-01	
9.861259e-01	2.991074e-02	2.757474e-03	1.081414e+00	9.173014e-01	1.137846e-02	-1.108060e-01	3.239092e+00	1.137723e+00	1.038040e+00	7.040641e-01	2.484147e-01	
9.926318e-01	2.994152e-02	1.953310e-03	1.084785e+00	8.787645e-01	2.504064e-02	-1.080895e-01	3.239356e+00	1.151099e+00	1.046980e+00	6.699074e-01	2.751655e-01	
1.085737e+00	4.434190e-01	-4.806551e-03	1.074116e+00	9.597092e-01	3.322391e-02	1.157974e-01	3.229626e+00	1.117650e+00	1.026654e+00	7.460912e-01	2.082692e-01	
1.143571e+00	6.675836e-01	-5.443151e-03	1.062698e+00	9.555932e-01	3.810642e-02	1.150295e-01	3.196916e+00	1.104146e+00	1.025147e+00	7.515448e-01	1.812608e-01	
1.296827e+00	1.216504e+00	-5.558771e-03	1.049424e+00	9.601950e-01	6.664476e-02	1.132279e-01	3.161673e+00	1.085669e+00	1.020741e+00	7.673601e-01	1.443056e-01	
1.261358e+00	1.096158e+00	-5.764639e-03	1.048344e+00	9.491126e-01	5.645567e-02	1.132943e-01	3.155629e+00	1.087340e+00	1.023366e+00	7.579622e-01	1.476483e-01	
1.210173e+00	9.130831e-01	-5.735541e-03	1.052631e+00	9.485920e-01	4.592880e-02	1.140535e-01	3.167255e+00	1.093063e+00	1.024562e+00	7.536554e-01	1.590933e-01	
1.053281e+00	2.859139e-01	-3.347012e-03	1.082250e+00	9.304928e-01	3.903909e-02	1.121049e-01	3.244861e+00	1.135337e+00	1.035062e+00	7.152014e-01	2.436427e-01	
1.045030e+00	2.194810e-01	-2.058501e-03	1.101402e+00	9.271276e-01	4.337526e-02	1.125542e-01	3.297456e+00	1.160255e+00	1.039386e+00	6.989898e-01	2.934772e-01	
9.994783e-01	3.713548e-02	1.355953e-03	1.116327e+00	9.379693e-01	1.845463e-02	-1.152733e-01	3.341558e+00	1.176560e+00	1.039901e+00	6.970433e-01	3.260881e-01	
1.014644e+00	9.021360e-02	-1.324428e-03	1.121187e+00	9.277750e-01	3.416519e-02	1.118630e-01	3.352695e+00	1.185092e+00	1.042902e+00	6.856266e-01	3.431523e-01	
1.027101e+00	1.409786e-01	-1.547849e-03	1.108974e+00	9.136471e-01	4.004503e-02	1.090577e-01	3.315240e+00	1.173117e+00	1.043733e+00	6.824425e-01	3.192023e-01	
1.095077e+00	4.152895e-01	-2.672529e-03	1.081566e+00	8.952079e-01	4.801061e-02	1.082962e-01	3.234438e+00	1.142988e+00	1.042698e+00	6.864077e-01	2.589446e-01	
1.365913e+00	1.401793e+00	-3.452790e-03	1.048048e+00	9.374658e-01	1.226588e-01	1.102415e-01	3.153335e+00	1.088434e+00	1.024685e+00	7.532139e-01	1.498352e-01	
1.356990e+00	1.373423e+00	-3.570767e-03	1.057493e+00	9.480765e-01	1.076969e-01	1.117439e-01	3.181821e+00	1.098177e+00	1.024623e+00	7.534362e-01	1.693219e-01	
1.343058e+00	1.326309e+00	-3.656908e-03	1.055729e+00	9.299446e-01	9.332522e-02	1.120821e-01	3.171940e+00	1.100917e+00	1.028896e+00	7.379320e-01	1.748017e-01	
1.322983e+00	1.250561e+00	-3.507720e-03	1.069110e+00	9.558116e-01	7.963671e-02	1.138763e-01	3.215379e+00	1.111635e+00	1.025910e+00	7.487862e-01	1.962390e-01	
1.006674e+00	4.366204e-02	6.921304e-04	1.134258e+00	8.708313e-01	4.122652e-02	-1.035589e-01	3.376141e+00	1.214549e+00	1.056507e+00	6.321720e-01	4.020659e-01	
1.017261e+00	6.144060e-02	-1.244474e-10	1.096316e+00	8.429728e-01	5.444503e-02	-5.010070e-03	3.262361e+00	1.174764e+00	1.057267e+00	6.290975e-01	3.224967e-01	
1.013356e+00	6.730486e-02	-6.872168e-04	1.140536e+00	9.204131e-01	2.863248e-02	1.192536e-01	3.405207e+00	1.210890e+00	1.047527e+00	6.677801e-01	3.947489e-01	
9.606829e-01	1.415587e-02	5.358568e-03	1.048765e+00	9.557769e-01	1.349856e-04	-1.179641e-01	3.158237e+00	1.086434e+00	1.022103e+00	7.624908e-01	1.458367e-01	
9.535919e-01	0.000000e+00	5.744130e-03	1.038520e+00	9.500803e-01	-5.422146e-04	-1.165408e-01	3.128328e+00	1.074881e+00	1.021210e+00	7.656876e-01	1.227307e-01	
9.690599e-01	2.529577e-02	4.708998e-03	1.055594e+00	9.445794e-01	4.462493e-03	-1.175015e-01	3.174271e+00	1.098041e+00	1.026339e+00	7.472330e-01	1.690493e-01	
9.780898e-01	2.980773e-02	3.748351e-03	1.064364e+00	9.239927e-01	1.009285e-02	-1.143647e-01	3.193365e+00	1.114442e+00	1.033087e+00	7.225326e-01	2.018532e-01	
9.859312e-01	4.285894e-02	3.231719e-03	1.080518e+00	9.433328e-01	1.608017e-02	-1.141021e-01	3.243112e+00	1.130074e+00	1.031916e+00	7.268546e-01	2.331168e-01	
9.955351e-01	4.849008e-02	2.238939e-03	1.091119e+00	9.127637e-01	2.410878e-02	-1.095724e-01	3.265080e+00	1.151012e+00	1.040824e+00	6.935448e-01	2.749925e-01	
9.590034e-01	3.739852e-02	6.374959e-03	1.043062e+00	9.537553e-01	6.852998e-03	-1.178254e-01	3.141914e+00	1.079675e+00	1.021299e+00	7.653700e-01	1.323192e-01	
1.194331e+00	7.957952e-01	-3.618206e-03	1.076077e+00	9.344395e-01	5.240899e-02	1.125013e-01	3.228831e+00	1.126380e+00	1.032788e+00	7.236360e-01	2.257290e-01	
1.147086e+00	6.152121e-01	-3.186771e-03	1.081571e+00	9.306184e-01	4.621566e-02	1.121236e-01	3.243082e+00	1.134367e+00	1.034827e+00	7.160776e-01	2.417013e-01	
1.252962e+00	1.007395e+00	-3.719000e-03	1.078902e+00	9.567990e-01	6.278903e-02	1.142285e-01	3.242500e+00	1.124147e+00	1.028041e+00	7.410496e-01	2.212630e-01	
1.294706e+00	1.154358e+00	-3.662495e-03	1.070885e+00	9.435292e-01	7.535617e-02	1.127131e-01	3.217068e+00	1.117130e+00	1.029273e+00	7.365568e-01	2.072286e-01	
1.344820e+00	1.294749e+00	-2.341288e-03	1.084552e+00	9.456093e-01	1.025679e-01	1.107192e-01	3.256148e+00	1.133365e+00	1.031072e+00	7.299618e-01	2.396985e-01	
1.047058e+00	2.004437e-01	-1.145328e-03	1.106760e+00	8.743500e-01	5.475700e-02	1.021640e-01	3.299982e+00	1.179416e+00	1.051436e+00	6.524454e-01	3.318001e-01	
1.140163e+00	5.551827e-01	-1.956506e-03	1.097102e+00	9.248004e-01	5.204961e-02	1.152031e-01	3.285095e+00	1.155213e+00	1.038925e+00	7.007281e-01	2.833940e-01	
1.072569e+00	3.023752e-01	-1.532224e-03	1.110689e+00	9.246727e-01	4.743294e-02	1.114829e-01	3.322786e+00	1.172509e+00	1.041582e+00	6.906625e-01	3.179870e-01	
1.004858e+00	5.774821e-02	1.406830e-03	1.096093e+00	8.677872e-01	4.259191e-02	-1.055566e-01	3.268568e+00	1.167656e+00	1.051083e+00	6.538412e-01	3.082801e-01	
1.023716e+00	1.039643e-01	-6.795977e-04	1.142360e+00	9.146775e-01	4.728435e-02	1.121260e-01	3.408964e+00	1.214518e+00	1.048987e+00	6.620795e-01	4.020046e-01	
1.013684e+00	6.846555e-02	6.869753e-04	1.148294e+00	9.577965e-01	3.656102e-02	-1.249939e-01	3.435881e+00	1.211618e+00	1.041075e+00	6.925923e-01	3.962042e-01	